Title = "Nombre d'onde, PSE linéaire - Jet compressible - Rans Francisco n = 0, st =  1.1000"
Variables = x, Re(alpha), Im(alpha), abs(alpha), Re(int(alpha)), Im(int(alpha)), C<sub>ph</sub>, sigma, N
Zone T = "_FrancSt1_0Case_7 nombre d'onde PSE",I = 201, F = point
   0.0000000000000000        11.936046203730021       -2.6542969836680657        12.227611845944704        0.0000000000000000        0.0000000000000000       0.57904466185274128        2.6542969836680657        0.0000000000000000     
  0.10000000000000001        10.828695266615627       -2.9113038724214375        11.213221277349330        1.1382370735172824      -0.27828004280447516       0.63825822665869969        3.7549743380603773       0.24755525086008459     
  0.20000000000000001        11.359695187344922       -2.4114072239059894        11.612818759840065        2.2476565962153101      -0.54441559762084646       0.60842335326014652        3.4933270988507070       0.55262886772481590     
  0.29999999999999999        11.420663571085537       -2.0804259713822075        11.608605800281181        3.3866745341368327      -0.76900725738525622       0.60517532933864415        2.9314874038026661       0.82669902543419715     
  0.40000000000000002        11.320062894709906       -1.5678830266936254        11.428126754879033        4.5237108574266056      -0.95142270728904788       0.61055348386159858        3.0822154868125917        1.0561446007264015     
  0.50000000000000000        11.298812642650104       -1.2167542730956251        11.364139126867741        5.6546546342946060       -1.0906545722785104       0.61170178287658306        2.1959514174022110        1.2745715180615453     
  0.59999999999999998        11.092889280262353      -0.87518161724407173        11.127359769834055        6.7742397304402289       -1.1952513667954952       0.62305713716941424        2.2460343374157241        1.4319777264801516     
  0.69999999999999996        10.755001725045222      -0.87737564927443179        10.790729824051079        7.8666342807056076       -1.2828792301214202       0.64263158803616882        1.5526792833800196        1.5825085628721631     
  0.80000000000000004        10.417061457922562      -0.65458205739752817        10.437607344981057        8.9252374398539978       -1.3594771154550183       0.66347922260179137        1.2641072412485224        1.6970532318111315     
  0.90000000000000002        10.183967296881031      -0.49454072749731137        10.195967851807689        9.9552888775941781       -1.4169332546997602       0.67866516421495982       0.67647063543429453        1.7895291472036914     
   1.0000000000000000        10.045167181247770      -0.39240416232514969        10.052828692752472        10.966745601500618       -1.4612804991908832       0.68804268890615183      -0.14797006512250668        1.8464150961544268     
   1.1000000000000001        10.007762643208530      -0.33787183070774435        10.013464460254800        11.969392092723433       -1.4977942988425279       0.69061428456117835      -0.70862926628728884        1.8568115424339990     
   1.2000000000000000        9.6403261102593039      -0.28316455066160412        9.6444838988355759        12.951796530396823       -1.5288461179109953       0.71693672587924950       0.11600561731853247        1.8343052812647145     
   1.3000000000000000        9.5036264473616310      -0.32352330425917725        9.5091315575813873        13.908994158277871       -1.5591805106570344       0.72724910603112958      -0.18216054226768774        1.8528617575259096     
   1.3999999999999999        9.3713015664550081      -0.22937855956241385        9.3741083614938550        14.852740558968701       -1.5868256038481139       0.73751802659276078      -0.78689923144492213        1.8574571705748415     
   1.5000000000000000        9.3342410001183520      -0.16711654016013008        9.3357368743064715        15.788017687297371       -1.6066503588342411       0.74044625993799740       2.31722028263768656E-002   1.8286595614434316     
   1.6000000000000001        9.3596904035423609      -0.16697331962591871        9.3611796553441842        16.722714257480408       -1.6233548518235437       0.73843295450047686      -0.62055116438597357        1.8373312252767460     
   1.7000000000000000        9.2451085026284794      -8.70221835607936089E-002   9.2455180539440356        17.652954202788948       -1.6360546269828793       0.74758493488016220        2.0913422698480035        1.8100299107453239     
   1.8000000000000000        8.9645659868140815      -0.10585085557764030        8.9651908923106838        18.563437927261077       -1.6456982789398009       0.77098030714076171        1.5290894456447619        1.9152144293982662     
   1.8999999999999999        8.8978906749906148      -9.80371070544217710E-002   8.8984307458362863        19.456560760351312       -1.6558926770714040       0.77675755865643248        1.3310443764555602        1.9935330637457860     
   2.0000000000000000        8.9197064169725682      -5.59264341350246552E-002   8.9198817442282650        20.347440614949473       -1.6635908541308764       0.77485777163542280        1.2855730108344565        2.0618247382531982     
   2.1000000000000001        8.9797806440934007      -4.18823795095200346E-002   8.9798783148630630        21.242414968002773       -1.6684812948131036       0.76967401675270342        1.1597118442236825        2.1259844917562889     
   2.2000000000000002        8.9745193819047806      -3.74642617449404761E-002   8.9745975791169972        22.140129969302684       -1.6724486268758265       0.77012523387415388        1.0295709535440687        2.1814473501629701     
   2.2999999999999998        8.7724149217313645       2.76896700962686636E-003   8.7724153587363496        23.027476684484487       -1.6741833916125921       0.78786786757841354       0.92175616316977693        2.2275366131222691     
   2.3999999999999999        8.6544997899587948      -1.67859390612077643E-002   8.6545160686283893        23.898822420068996       -1.6748842402151711       0.79860234625188575       0.71946191126450232        2.2676370510758970     
   2.5000000000000000        8.6693528911098863      -1.14984275891745671E-002   8.6693605164644278        24.765015054122429       -1.6762984585476903       0.79723411017044277       0.65241580075147865        2.2988473505948614     
   2.6000000000000001        8.7522296305621357      -1.92279606672526304E-002   8.7522507516958878        25.636094180206030       -1.6778347779605116       0.78968492939937129       0.57445514299020850        2.3269584014208182     
   2.7000000000000002        8.7784462174315294      -2.54813547527769253E-002   8.7784831999484947        26.512627972605713       -1.6800702437315131       0.78732655719565037       0.50208647765178394        2.3506002873404692     
   2.7999999999999998        8.6801098937490160      -1.19707240940828928E-002   8.6801181481472298        27.385555778164736       -1.6819428476738560       0.79624612159286923       0.45709788370788801        2.3691659056024204     
   2.8999999999999999        8.5981944024048289      -2.26570927139381033E-002   8.5982242541931857        28.249470992972430       -1.6836742385142571       0.80383200407337463       0.35320948695243304        2.3853060921957070     
   3.0000000000000000        8.6243325544552949      -3.40883879125212577E-002   8.6243999227788528        29.110597340815438       -1.6865115125455801       0.80139579431304409       0.27507389823155620        2.3975527976677440     
   3.1000000000000001        8.6959954344768828      -4.32817010808920141E-002   8.6961031446327297        29.976613740262049       -1.6903800169952508       0.79479156698905451       0.19798523376899277        2.4065401276510006     
   3.2000000000000002        8.7239257237755670      -4.62174886728170115E-002   8.7240481480911303        30.847609798174673       -1.6948549764829361       0.79224698338059263       0.25626242935662336        2.4111798149545187     
   3.2999999999999998        8.7015172623537218      -4.15955334369048774E-002   8.7016166805623953        31.718881947481133       -1.6992456275884222       0.79428720641623074       8.86863994851540688E-002   2.4176976116757030     
   3.3999999999999999        8.6957270279368384      -3.92712458912337845E-002   8.6958157049896769        32.588744161995663       -1.7032889665548292       0.79481609941214770      -8.68790490958227801E-002   2.4150149462471386     
   3.5000000000000000        8.7306835073450806      -3.72875005367728982E-002   8.7307631317728269        33.460064688759758       -1.7071169038762295       0.79163376293310050      -7.72999694665727766E-002   2.4029533427480030     
   3.6000000000000001        8.7854134785678575      -3.41358230613232963E-002   8.7854797958801232        34.335869538055405       -1.7106880700561342       0.78670216885730637      -0.14284640481306732        2.3903996919080241     
   3.7000000000000002        8.8090974718741535      -2.27990981390661027E-002   8.8091269753509369        35.215595085577505       -1.7135348161161537       0.78458705445872534      -0.20689163591325890        2.3725912850196909     
   3.7999999999999998        8.8219678351473689      -1.51772754150484232E-002   8.8219808905972918        36.097148350928578       -1.7154336347938595       0.78344242090314653      -0.27113729219504557        2.3495196167872137     
   3.8999999999999999        8.8468695188993856      -7.78323015503704953E-003   8.8468729426336115        36.980590218630915       -1.7165816600723638       0.78123723008829760      -0.32586891595041395        2.3214917692245352     
   4.0000000000000000        8.8823595647842861      -7.46129878726342123E-004   8.8823595961222317        37.867051672815101       -1.7170081280740519       0.77811574587674281      -0.37035363807988081        2.2888971122914308     
   4.0999999999999996        8.9092949428476604       4.49714359451980003E-003   8.9092960778588672        38.756634398196695       -1.7168205773882623       0.77576327669408540      -7.19383505610214358E-002   2.2521776524326094     
   4.2000000000000002        8.9332452969234009       7.56705428249157021E-003   8.9332485018225345        39.648761410185251       -1.7162173674944117       0.77368342726219097       2.15416744729676791E-002   2.2288528498569495     
   4.2999999999999998        8.9592658504056679       9.34678290603883563E-003   8.9592707259350011        40.543386967551704       -1.7153716756349850       0.77143640486844123       6.97377684026633943E-002   2.2090792100769145     
   4.4000000000000004        8.9840162230020297       1.02557079813802698E-002   8.9840220767042780        41.440551071222096       -1.7143915510906140       0.76931114841509607       6.55060238012098173E-002   2.1909960768182142     
   4.5000000000000000        9.0094781511686737       9.56107236083523354E-003   9.0094832243858693        42.340225789930628       -1.7134007120735033       0.76713697751750620       2.07140685105160760E-002   2.1724059646876825     
   4.5999999999999996        9.0350401428721305       8.50819948940154634E-003   9.0350441489109166        43.242451704632664       -1.7124972484809915       0.76496658881478552      -4.46923575434389694E-002   2.1518339880367621     
   4.7000000000000002        9.0608400964381293       8.39592309151603738E-003   9.0608439863373373        44.147245716598185       -1.7116520423519457       0.76278841303186662      -0.13180134130357749        2.1284879474317022     
   4.7999999999999998        9.0833222817278827       8.19418003464613201E-003   9.0833259777639093        45.054453835506486       -1.7108225371956376       0.76090043086997006      -0.21982964542568287        2.1015784248260130     
   4.9000000000000004        9.1106837206844826       8.91214555194911988E-003   9.1106880796503837        45.964154135627112       -1.7099672209163079       0.75861527518576688      -0.30265656702974780        2.0712185038789155     
   5.0000000000000000        9.1401096565026361       1.08453425813724632E-002   9.1401160908572958        46.876693804486465       -1.7089793465096419       0.75617296702566672      -0.39264115174611691        2.0373212101407732     
   5.0999999999999996        9.1680684973249207       1.28297821539575130E-002   9.1680774743100724        47.792102712177837       -1.7077955902728754       0.75386695026484585      -0.47906460535873957        1.9993648511665114     
   5.2000000000000002        9.2003689134007587       1.50375289711225761E-002   9.2003812024257243        48.710524582714129       -1.7064022247166215       0.75122029376785360       4.51755051334922289E-002   1.9573394398559052     
   5.2999999999999998        9.2299532896840528       1.74978009075803555E-002   9.2299698755080488        49.632040692868365       -1.7047754582226864       0.74881243934595587       5.33438016236041299E-003   1.9414242880002002     
   5.4000000000000004        9.2582818724855844       1.93939070986768776E-002   9.2583021852836360        50.556452450976849       -1.7029308728223735       0.74652121560887452      -3.44927226872999010E-002   1.9232270644850176     
   5.5000000000000000        9.2919968790460192       2.05450271786116571E-002   9.2920195920124247        51.483966388553426       -1.7009339261085090       0.74381254404888786      -7.63324586950711176E-002   1.9027156391694948     
   5.5999999999999996        9.3265067703553886       2.13942104393762718E-002   9.3265313085693986        52.414891571023496       -1.6988369642276095       0.74106029278464580      -0.13574293866131568        1.8796201770057004     
   5.7000000000000002        9.3575384670073909       2.19043629628179817E-002   9.3575641041159763        53.349093832891640       -1.6966720355574998       0.73860277061814683      -0.18448620159683890        1.8533469348213905     
   5.7999999999999998        9.3949842897713456       2.23278402958600533E-002   9.3950108215745374        54.286719970730573       -1.6944604253945659       0.73565890316840088      -0.23914214518569915        1.8247648901995257     
   5.9000000000000004        9.4324483119650502       2.35096550937044721E-002   9.4324776099270409        55.228091600817400       -1.6921685506250876       0.73273699566742501      -0.29763610105313631        1.7935672198847836     
   6.0000000000000000        9.4678498618498477       2.55057181965255286E-002   9.4678842170883613        56.173106509508145       -1.6897177819605762       0.72999719458449064      -0.36680413116200961        1.7598209474887390     
   6.0999999999999996        9.5022916734198368       2.86074127932190343E-002   9.5023347357799750        57.121613586271629       -1.6870121254110890       0.72735126172043962      -0.43961549798231131        1.7233639505057932     
   6.2000000000000002        9.5394413974108563       3.30296939207554083E-002   9.5394985788204032        58.073700239813171       -1.6839302700753902       0.72451871655434974      -0.50403383004402147        1.6843740256162325     
   6.2999999999999998        9.5739865299887068       3.89006570147758385E-002   9.5740655594956827        59.029371636183143       -1.6803337525286137       0.72190448735733681      -0.54275729357230240        1.6430377668017329     
   6.4000000000000004        9.6030703929505883       4.56394029544104490E-002   9.6031788448964228        59.988224482330111       -1.6761067495301545       0.71971812712850003      -0.26422774527517595        1.6008665624578988     
   6.5000000000000000        9.6330016243566146       5.30051301035871017E-002   9.6331474523477780        60.950028083195470       -1.6711745228772545       0.71748185118355190      -0.38383177694416193        1.5738312873132092     
   6.5999999999999996        9.6642674259893226       6.04979432102903739E-002   9.6644567815356783        61.914891535712762       -1.6654993692115607       0.71516065659679540      -0.28089241701351914        1.5416150573045468     
   6.7000000000000002        9.6953034264494917       6.70485413858852158E-002   9.6955352630901839        62.882870078334705       -1.6591220449817519       0.71287132892019256      -6.81846791333188262E-002   1.5152501483987073     
   6.7999999999999998        9.7355058340550151       7.17033926881151529E-002   9.7357698833447284        63.854410541359925       -1.6521844482780519       0.70992755340158620       0.14021848655343513        1.5004508891212907     
   6.9000000000000004        9.7821235132534738       7.40628558729077291E-002   9.7824038832572509        64.830292008725351       -1.6448961358500007       0.70654432327841488       0.28198762953165896        1.4962849461332559     
   7.0000000000000000        9.8283021810948270       7.38301813102679588E-002   9.8285794832511595        65.810813293442763       -1.6375014839908419       0.70322459673575444       0.33621242560891729        1.4995257111323683     
   7.0999999999999996        9.8806977692992692       7.11818600331843437E-002   9.8809541677630168        66.796263290962457       -1.6302508819236694       0.69949552139653226       0.31507193866042149        1.5061124075651637     
   7.2000000000000002        9.9402004681855765       6.67540787663717661E-002   9.9404246113910393        67.787308202836698       -1.6233540849836916       0.69530829483956369       0.24564384337089470        1.5119018280761254     
   7.2999999999999998        10.002434018336229       6.12802072402063580E-002   10.002621734073985        68.784439927162779       -1.6169523706833626       0.69098219745589295       0.15066978386457899        1.5145812495852522     
   7.4000000000000004        10.071484967796128       5.54523586026543641E-002   10.071637623575322        69.788135876469397       -1.6111157423912195       0.68624476529501699       4.63844201151573099E-002   1.5131360421266045     
   7.5000000000000000        10.147128108854492       5.02548829812148393E-002   10.147252554793756        70.799066530301928       -1.6058303803120260       0.68112906073064106      -5.29665231952175311E-002   1.5068558218414310     
   7.5999999999999996        10.225826190600424       4.64049744767960001E-002   10.225931483343009        71.817714245274672       -1.6009973874391255       0.67588708326087121      -0.15129691223515809        1.4958728370003307     
   7.7000000000000002        10.308268138891902       4.40533340819929398E-002   10.308362271454067        72.844418961749298       -1.5964744720111861       0.67048157311908119      -0.25010193906419126        1.4804929389335975     
   7.7999999999999998        10.398582395146715       4.33584048521823279E-002   10.398672789348000        73.879761488451223       -1.5921038850644773       0.66465827506673625      -0.34436016775288197        1.4609529792862059     
   7.9000000000000004        10.494018117205783       4.45733146079142634E-002   10.494112779297655        74.924391514068859       -1.5877072990914725       0.65861367501982693      -0.43305531222413357        1.4368552176551725     
   8.0000000000000000        10.587333148811952       4.73809441704832260E-002   10.587439169024911        75.978459077369735       -1.5831095861525526       0.65280876125760845      -0.51891664586178687        1.4088827800214778     
   8.0999999999999996        10.690232092689081       5.13810226951907645E-002   10.690355569626895        77.042337339444785       -1.5781714878092690       0.64652514351154622      -0.59028365630080515        1.3774800378313390     
   8.1999999999999993        10.794779294305387       5.63690359984806086E-002   10.794926469457016        78.116587908794500       -1.5727839848745855       0.64026356162219999      -0.63245291532835302        1.3424138556371910     
   8.3000000000000007        10.892498328906454       6.16381115055218490E-002   10.892672725370016        79.200951789955113       -1.5668836274993854       0.63451961425193282      -5.26263406638381032E-002   1.3055610457518012     
   8.4000000000000004        10.998851183151299       6.64724649414806523E-002   10.999052047231348        80.295519265557999       -1.5604780986770352       0.62838415783686596      -0.12136185549447850        1.2985554631269838     
   8.5000000000000000        11.106550509348009       7.09838331993337124E-002   11.106777341842871        81.400789350182961       -1.5536052837699945       0.62229076724410215      -0.19287742901701491        1.2878811361099174     
   8.5999999999999996        11.206741113985910       7.44952093846604074E-002   11.206988709377885        82.516453931349659       -1.5463313316407947       0.61672735789997435      -0.25535539431272841        1.2739022071258415     
   8.6999999999999993        11.315066223133499       7.66616689343756902E-002   11.315325918654770        83.642544298205621       -1.5387734877248429       0.61082310095252201      -0.30767168687925700        1.2575508080139521     
   8.8000000000000007        11.427684360962299       7.77288380596857925E-002   11.427948705959807        84.779681827410428       -1.5310539623751398       0.60480352970788076      -0.35550067259092821        1.2383387984976808     
   8.9000000000000004        11.533522140326765       7.75221385871276147E-002   11.533782668464791        85.927742152474877       -1.5232914135427991       0.59925352843704094      -0.38971672130516055        1.2168868798679198     
   9.0000000000000000        11.647126049209296       7.59989726066387372E-002   11.647373998030931        87.086774561951671       -1.5156153579831109       0.59340852058235916       2.05056778878772127E-002   1.1943463499951339     
   9.0999999999999996        11.765294331578735       7.37596050161886951E-002   11.765525538113922        88.257395580991073       -1.5081274291019695       0.58744844311685995       2.38965042516862229E-002   1.1921293160185280     
   9.1999999999999993        11.877371263153536       7.08649546724490625E-002   11.877582665028527        89.439528860727677       -1.5008962011175377       0.58190517790234386       2.90448596778429026E-003   1.1900547687744083     
   9.3000000000000007        11.991874811536617       6.75795429235819534E-002   11.992065230400813        90.632991164462197       -1.4939739762377362       0.57634889844317161      -3.63386597664904429E-002   1.1873261075338102     
   9.4000000000000004        12.113532589997609       6.42746990098412990E-002   12.113703110356758        91.838261534538901       -1.4873812641410651       0.57056055172580422      -8.62198840522354210E-002   1.1829348762699528     
   9.5000000000000000        12.234559318713274       6.13873802052405590E-002   12.234713324535326        93.055666129974441       -1.4810981601803110       0.56491645165560722      -0.14112295108033521        1.1757285425938371     
   9.5999999999999996        12.350703523674735       5.89295662120546057E-002   12.350844109755634        94.284929272093834       -1.4750823128594464       0.55960406017754927      -0.19649822747055304        1.1660823991844023     
   9.6999999999999993        12.476655307472534       5.69189977246027795E-002   12.476785140162690        95.526297213651191       -1.4692898846626135       0.55395485950133605      -0.24773780661172237        1.1543165527053074     
   9.8000000000000007        12.603679230754461       5.59452122457353151E-002   12.603803394948866        96.780313940562564       -1.4636466741640966       0.54837192468629814      -0.30093409541289734        1.1394812263812206     
   9.9000000000000004        12.722823647330745       5.57030791553357538E-002   12.722945586384695        98.046639084466818       -1.4580642595940430       0.54323662965709518      -0.35427493707356128        1.1222901904175977     
   10.000000000000000        12.851909151822785       5.60503184051099959E-002   12.852031375813691        99.325375724424489       -1.4524765897160208       0.53778032168219059       4.27279903481778342E-002   1.1030909949452405     
   10.100000000000000        12.979021798742078       5.73024457861090533E-002   12.979148293417220        100.61692227195273       -1.4468089515064599       0.53251346249895393       2.57734583163008908E-002   1.1034657395592666     
   10.199999999999999        13.110154458877881       5.92035274645946047E-002   13.110288135403426        101.92138108483373       -1.4409836528439248       0.52718706401031312      -5.38861332997384035E-003   1.1026966563855045     
   10.300000000000001        13.221674049367881       6.10025301443366183E-002   13.221814776210262        103.23797251024604       -1.4349733499634783       0.52274044966552324      -2.46359639481310948E-002   1.1018144010906608     
   10.400000000000000        13.367798163667032       6.36623705446425214E-002   13.367949754616937        104.56744612089778       -1.4287401049290294       0.51702634594548613      -7.69015335278345896E-002   1.0983269670619022     
   10.500000000000000        13.467325860872755       6.60543633643162487E-002   13.467487851186336        105.90920232212477       -1.4222542682335815       0.51320536157648478      -0.10259839803936298        1.0931007271852951     
   10.600000000000000        13.611483639507110       6.76858374194614920E-002   13.611651929180267        107.26314279714376       -1.4155672581943926       0.50777005805869813      -0.12438972861776924        1.0883330887189802     
   10.699999999999999        13.754920536870973       7.02748380412460544E-002   13.755100055197584        108.63146300596266       -1.4086692244213572       0.50247501026056840      -0.18002243424809997        1.0803659892707402     
   10.800000000000001        13.843980700086224       7.27850177862096326E-002   13.844172033139937        110.01140806781054       -1.4015162316299843       0.49924252190372520      -0.22908114998126028        1.0684786497597745     
   10.900000000000000        13.947848983747312       7.31333511206137127E-002   13.948040714038193        111.40099955200220       -1.3942203131846431       0.49552471108277374      -0.22677361883636085        1.0579512874603394     
   11.000000000000000        14.143174407454028       7.27935984815626103E-002   14.143361737141651        112.80555072156227       -1.3869239657045342       0.48868122804558656      -0.24171026950092928        1.0485500703085016     
   11.100000000000000        14.295305485496163       7.42887116251073620E-002   14.295498513040096        114.22747471620977       -1.3795698501992009       0.48348066747575774      -0.31427158145344652        1.0337545362528939     
   11.199999999999999        14.378201677370861       7.44614473229581325E-002   14.378394485556711        115.66115007435312       -1.3721323422517977       0.48069320440644669      -0.34395597324728522        1.0160795410585843     
   11.300000000000001        14.476372127420635       7.35811543098309068E-002   14.476559127010486        117.10387876459271       -1.3647302121701581       0.47743341888856378      -0.36243387479445927       0.99801411317088651     
   11.400000000000000        14.568282596715768       7.27571818778456059E-002   14.568464278203326        118.55611150079952       -1.3574132953607743       0.47442131850570057      -0.39185515247534186       0.97808164818654175     
   11.500000000000000        14.657340943282369       7.08195557713632573E-002   14.657512030938310        120.01739267779942       -1.3502344584783139       0.47153872347256609      -0.39291500607068541       0.95798649084528464     
   11.600000000000000        14.809012774239061       6.74056273173928994E-002   14.809166177275808        121.49071036367549       -1.3433231993238761       0.46670929002913786      -0.36290946948765984       0.94055960439186803     
   11.699999999999999        15.019307654427099       6.43488036806505875E-002   15.019445501977348        122.98212638510880       -1.3367354777739739       0.46017459638762426      -0.34521190603114860       0.92428917172130953     
   11.800000000000001        15.204006922481007       6.26381289418852377E-002   15.204135951577376        124.49329211395423       -1.3303861311428471       0.45458436536739744      -0.34994063199784725       0.90629253543822585     
   11.900000000000000        15.319462810166328       6.13021280395258314E-002   15.319585462504245        126.01946560058659       -1.3241891182937766       0.45115836785810282      -0.34879910366987837       0.88678082480866216     
   12.000000000000000        15.394675118416542       5.96169915763943292E-002   15.394790553537193        127.55517249701572       -1.3181431623129807       0.44895418608927723      -0.32865612118072174       0.86753306957853671     
   12.100000000000000        15.466868766855411       5.75026916898293133E-002   15.466975658178265        129.09824969127931       -1.3122871781496694       0.44685863325539371      -0.28841803554301904       0.85006690303252330     
   12.199999999999999        15.563489575588441       5.50467880534035656E-002   15.563586923274631        130.64976760840150       -1.3066597041625079       0.44408445832985549      -0.22975712326881834       0.83575806175470391     
   12.300000000000001        15.709437207037670       5.23234833103473351E-002   15.709524343810198        132.21341394753284       -1.3012911905943203       0.43995871696799305      -0.15824459183563411       0.82597944225439113     
   12.400000000000000        15.911043182626971       5.00287530204430522E-002   15.911121834602014        133.79443796701608       -1.2961735787777808       0.43438407894236081      -9.69327166269101093E-002  0.82051789926186558     
   12.500000000000000        16.133958992536002       4.87716663369892334E-002   16.134032708788915        135.39668807577422       -1.2912335578099092       0.42838238532123402      -6.14180545989893509E-002  0.81756281940969056     