Title = "Perturbations du champ moyen, PSE linéaire Jet compressible - Rans Francisco n = 0, st =  1.1000"
Variables = x, r, Re(ux), Im(ux), abs(ux), Re(ur), Im(ur), abs(ur),  Re(ut), Im(ut), abs(ut),  Re(rho), Im(rho), abs(rho),  Re(p), Im(p), abs(p)
Zone T = "_FrancSt1_0Case_5 perturbations PSE",I =  69, J = 201, F = point
  0.00000000E+00  0.00000000E+00 -0.32817547E-01 -0.75224674E-01  0.82071573E-01  0.32216625E-15  0.12437728E-15  0.34534157E-15  0.00000000E+00  0.00000000E+00  0.00000000E+00  0.23683778E-01  0.28399096E-01  0.36978777E-01  0.24375976E-01  0.29229107E-01  0.38059545E-01
  0.00000000E+00  0.21688635E-01 -0.33783266E-01 -0.71840877E-01  0.79387786E-01  0.12961644E-01  0.98427216E-02  0.16275238E-01  0.00000000E+00  0.00000000E+00  0.00000000E+00  0.23697647E-01  0.26815370E-01  0.35786066E-01  0.24351952E-01  0.27628826E-01  0.36828923E-01
  0.00000000E+00  0.43300964E-01 -0.36232880E-01 -0.70718558E-01  0.79460280E-01 -0.95405017E-02  0.10395712E-01  0.14109997E-01  0.00000000E+00  0.00000000E+00  0.00000000E+00  0.24585651E-01  0.26065433E-01  0.35831007E-01  0.25305725E-01  0.26793086E-01  0.36854432E-01
  0.00000000E+00  0.64837254E-01 -0.40315281E-01 -0.73676222E-01  0.83985162E-01 -0.14924523E-01  0.16070727E-01  0.21931932E-01  0.00000000E+00  0.00000000E+00  0.00000000E+00  0.26719788E-01  0.26880908E-01  0.37901587E-01  0.27498809E-01  0.27582496E-01  0.38948409E-01
  0.00000000E+00  0.86297773E-01 -0.46236516E-01 -0.77354715E-01  0.90119739E-01 -0.28784805E-01  0.20507454E-01  0.35342901E-01  0.00000000E+00  0.00000000E+00  0.00000000E+00  0.29710114E-01  0.27827454E-01  0.40706978E-01  0.30614365E-01  0.28425398E-01  0.41776101E-01
  0.00000000E+00  0.10768279E+00 -0.54285036E-01 -0.84915067E-01  0.10078409E+00 -0.33342359E-01  0.28769710E-01  0.44038723E-01  0.00000000E+00  0.00000000E+00  0.00000000E+00  0.34140714E-01  0.30206544E-01  0.45585345E-01  0.35163027E-01  0.30755967E-01  0.46715822E-01
  0.00000000E+00  0.12899256E+00 -0.64849236E-01 -0.91994459E-01  0.11255401E+00 -0.48889522E-01  0.36091361E-01  0.60768180E-01  0.00000000E+00  0.00000000E+00  0.00000000E+00  0.39550727E-01  0.32140750E-01  0.50963593E-01  0.40799004E-01  0.32507219E-01  0.52165870E-01
  0.00000000E+00  0.15022736E+00 -0.78467836E-01 -0.10434411E+00  0.13055610E+00 -0.54923727E-01  0.48229173E-01  0.73093563E-01  0.00000000E+00  0.00000000E+00  0.00000000E+00  0.47004762E-01  0.36012506E-01  0.59214426E-01  0.48454802E-01  0.36281917E-01  0.60533010E-01
  0.00000000E+00  0.17138746E+00 -0.95779412E-01 -0.11534368E+00  0.14992618E+00 -0.73785763E-01  0.60280383E-01  0.95278872E-01  0.00000000E+00  0.00000000E+00  0.00000000E+00  0.55818634E-01  0.39040333E-01  0.68116573E-01  0.57615357E-01  0.38889048E-01  0.69511779E-01
  0.00000000E+00  0.19247310E+00 -0.11769210E+00 -0.13338735E+00  0.17788652E+00 -0.82782787E-01  0.78567007E-01  0.11413047E+00  0.00000000E+00  0.00000000E+00  0.00000000E+00  0.67610083E-01  0.44662088E-01  0.81029781E-01  0.69704185E-01  0.44158643E-01  0.82514600E-01
  0.00000000E+00  0.21348456E+00 -0.14512186E+00 -0.14911864E+00  0.20807864E+00 -0.10641902E+00  0.98220394E-01  0.14481800E+00  0.00000000E+00  0.00000000E+00  0.00000000E+00  0.81398577E-01  0.48839215E-01  0.94926273E-01  0.84044094E-01  0.47630585E-01  0.96602704E-01
  0.00000000E+00  0.23442209E+00 -0.17956917E+00 -0.17397807E+00  0.25002691E+00 -0.11983802E+00  0.12612713E+00  0.17398047E+00  0.00000000E+00  0.00000000E+00  0.00000000E+00  0.99487006E-01  0.56149389E-01  0.11423843E+00  0.10264873E+00  0.54434951E-01  0.11618918E+00
  0.00000000E+00  0.25528596E+00 -0.22257929E+00 -0.19642618E+00  0.29685819E+00 -0.14991249E+00  0.15774267E+00  0.21761550E+00  0.00000000E+00  0.00000000E+00  0.00000000E+00  0.12074839E+00  0.61717349E-01  0.13560680E+00  0.12471362E+00  0.58703164E-01  0.13783885E+00
  0.00000000E+00  0.27607642E+00 -0.27678202E+00 -0.23155224E+00  0.36086663E+00 -0.16975013E+00  0.20074296E+00  0.26289322E+00  0.00000000E+00  0.00000000E+00  0.00000000E+00  0.14835782E+00  0.71323285E-01  0.16461183E+00  0.15302735E+00  0.66961260E-01  0.16703647E+00
  0.00000000E+00  0.29679374E+00 -0.34443714E+00 -0.26540008E+00  0.43482657E+00 -0.20898436E+00  0.25131211E+00  0.32685201E+00  0.00000000E+00  0.00000000E+00  0.00000000E+00  0.18094187E+00  0.78411309E-01  0.19720115E+00  0.18684565E+00  0.71844334E-01  0.20018218E+00
  0.00000000E+00  0.31743817E+00 -0.42996287E+00 -0.31612039E+00  0.53366672E+00 -0.23865917E+00  0.31810669E+00  0.39768086E+00  0.00000000E+00  0.00000000E+00  0.00000000E+00  0.22276202E+00  0.89619551E-01  0.24011369E+00  0.23015381E+00  0.81443744E-01  0.24413901E+00
  0.00000000E+00  0.33800996E+00 -0.53552486E+00 -0.36680458E+00  0.64910128E+00 -0.29136057E+00  0.39827779E+00  0.49347359E+00  0.00000000E+00  0.00000000E+00  0.00000000E+00  0.27303602E+00  0.97861244E-01  0.29004395E+00  0.28273475E+00  0.86861017E-01  0.29577656E+00
  0.00000000E+00  0.35850938E+00 -0.66573391E+00 -0.43218263E+00  0.79371497E+00 -0.33537372E+00  0.50095277E+00  0.60285090E+00  0.00000000E+00  0.00000000E+00  0.00000000E+00  0.33889143E+00  0.11335314E+00  0.35734624E+00  0.35044641E+00  0.97957971E-01  0.36387972E+00
  0.00000000E+00  0.37893667E+00 -0.81394146E+00 -0.47793699E+00  0.94388795E+00 -0.40484881E+00  0.62146292E+00  0.74169989E+00  0.00000000E+00  0.00000000E+00  0.00000000E+00  0.42160550E+00  0.13074286E+00  0.44141238E+00  0.43375394E+00  0.10418107E+00  0.44608988E+00
  0.00000000E+00  0.39929210E+00 -0.97272742E+00 -0.48568222E+00  0.10872377E+01 -0.42518285E+00  0.78827450E+00  0.89563226E+00  0.00000000E+00  0.00000000E+00  0.00000000E+00  0.53553578E+00  0.16325478E+00  0.55986667E+00  0.53926600E+00  0.11481715E+00  0.55135361E+00
  0.00000000E+00  0.41957591E+00 -0.10950097E+01 -0.37294671E+00  0.11567780E+01 -0.41536170E+00  0.98900786E+00  0.10726891E+01  0.00000000E+00  0.00000000E+00  0.00000000E+00  0.68958936E+00  0.20334196E+00  0.71894467E+00  0.66339305E+00  0.10831751E+00  0.67217782E+00
  0.00000000E+00  0.43978835E+00 -0.11598947E+01 -0.82735778E-01  0.11628418E+01 -0.44963211E+00  0.11104252E+01  0.11980038E+01  0.00000000E+00  0.00000000E+00  0.00000000E+00  0.87363802E+00  0.28832420E+00  0.91998600E+00  0.79955170E+00  0.98549485E-01  0.80560221E+00
  0.00000000E+00  0.45992968E+00 -0.10567441E+01  0.44706579E+00  0.11474215E+01 -0.34043478E+00  0.12581632E+01  0.13034072E+01  0.00000000E+00  0.00000000E+00  0.00000000E+00  0.11210796E+01  0.43548392E+00  0.12026910E+01  0.91859054E+00  0.74373072E-01  0.92159640E+00
  0.00000000E+00  0.48000015E+00 -0.10879213E+01  0.12492991E+01  0.16565992E+01 -0.14130461E+00  0.13188414E+01  0.13263897E+01  0.00000000E+00  0.00000000E+00  0.00000000E+00  0.13993188E+01  0.89097858E+00  0.16588960E+01  0.99572913E+00  0.36736184E-01  0.99640656E+00
  0.00000000E+00  0.50000000E+00 -0.13615925E+01  0.13647440E+01  0.19278123E+01  0.25858456E+00  0.14957914E+01  0.15179783E+01  0.00000000E+00  0.00000000E+00  0.00000000E+00  0.22381456E-01  0.13215642E+01  0.13217537E+01  0.10000000E+01  0.00000000E+00  0.10000000E+01
  0.00000000E+00  0.51999989E+00 -0.24770243E+00  0.23599249E+00  0.34212417E+00  0.44752071E+00  0.16360743E+01  0.16961763E+01  0.00000000E+00  0.00000000E+00  0.00000000E+00  0.29310144E+00  0.19627367E+00  0.35274893E+00  0.93340544E+00 -0.10766790E-01  0.93346754E+00
  0.00000000E+00  0.54226011E+00  0.69632079E+00 -0.13879722E+00  0.71001924E+00  0.40327091E+00  0.15848236E+01  0.16353267E+01  0.00000000E+00  0.00000000E+00  0.00000000E+00  0.47187082E+00  0.43249677E-01  0.47384872E+00  0.79793615E+00  0.10725670E-01  0.79800823E+00
  0.00000000E+00  0.56703610E+00  0.10979466E+01 -0.16879222E+00  0.11108454E+01  0.26562631E+00  0.13591532E+01  0.13848663E+01  0.00000000E+00  0.00000000E+00  0.00000000E+00  0.44982923E+00  0.34263066E-01  0.45113223E+00  0.62474543E+00  0.45355315E-01  0.62638962E+00
  0.00000000E+00  0.59461219E+00  0.10441612E+01 -0.72704266E-01  0.10466893E+01  0.12157812E+00  0.10525712E+01  0.10595694E+01  0.00000000E+00  0.00000000E+00  0.00000000E+00  0.34655718E+00  0.50945914E-01  0.35028184E+00  0.45313383E+00  0.72115662E-01  0.45883650E+00
  0.00000000E+00  0.62530483E+00  0.79870264E+00  0.20775523E-01  0.79897279E+00  0.15428580E-01  0.75118612E+00  0.75134454E+00  0.00000000E+00  0.00000000E+00  0.00000000E+00  0.23743376E+00  0.60292305E-01  0.24496929E+00  0.30926868E+00  0.82464293E-01  0.32007417E+00
  0.00000000E+00  0.65946626E+00  0.53614062E+00  0.72242501E-01  0.54098590E+00 -0.44228376E-01  0.50274252E+00  0.50468425E+00  0.00000000E+00  0.00000000E+00  0.00000000E+00  0.15106952E+00  0.58251138E-01  0.16191107E+00  0.20063840E+00  0.78753946E-01  0.21554107E+00
  0.00000000E+00  0.69748849E+00  0.33363666E+00  0.86857121E-01  0.34475728E+00 -0.67305087E-01  0.31828464E+00  0.32532305E+00  0.00000000E+00  0.00000000E+00  0.00000000E+00  0.91354371E-01  0.49346121E-01  0.10382996E+00  0.12339346E+00  0.66836070E-01  0.14033177E+00
  0.00000000E+00  0.73980787E+00  0.19598795E+00  0.80282942E-01  0.21179383E+00 -0.67506912E-01  0.18978491E+00  0.20143360E+00  0.00000000E+00  0.00000000E+00  0.00000000E+00  0.52156720E-01  0.38051964E-01  0.64562182E-01  0.70904314E-01  0.51672022E-01  0.87734940E-01
  0.00000000E+00  0.78691004E+00  0.10750457E+00  0.64096300E-01  0.12516217E+00 -0.55953893E-01  0.10502004E+00  0.11899599E+00  0.00000000E+00  0.00000000E+00  0.00000000E+00  0.27368024E-01  0.26956577E-01  0.38414396E-01  0.37197869E-01  0.36609817E-01  0.52191572E-01
  0.00000000E+00  0.83933554E+00  0.53579074E-01  0.45417026E-01  0.70238333E-01 -0.40442800E-01  0.52763849E-01  0.66480402E-01  0.00000000E+00  0.00000000E+00  0.00000000E+00  0.12700572E-01  0.17469812E-01  0.21598585E-01  0.17238398E-01  0.23709689E-01  0.29314019E-01
  0.00000000E+00  0.89768599E+00  0.23358817E-01  0.28684528E-01  0.36992384E-01 -0.25891412E-01  0.23339599E-01  0.34858315E-01  0.00000000E+00  0.00000000E+00  0.00000000E+00  0.49014197E-02  0.10277871E-01  0.11386771E-01  0.66486699E-02  0.13944366E-01  0.15448306E-01
  0.00000000E+00  0.96263101E+00  0.83536154E-02  0.16111669E-01  0.18148520E-01 -0.14705716E-01  0.86061065E-02  0.17038872E-01  0.00000000E+00  0.00000000E+00  0.00000000E+00  0.13314943E-02  0.54337097E-02  0.55944685E-02  0.18060687E-02  0.73721209E-02  0.75901285E-02
  0.00000000E+00  0.10349159E+01  0.20381702E-02  0.79809902E-02  0.82371320E-02 -0.73577944E-02  0.22934934E-02  0.77069612E-02  0.00000000E+00  0.00000000E+00  0.00000000E+00  0.31656974E-04  0.25433290E-02  0.25435260E-02  0.42843500E-04  0.34507410E-02  0.34510069E-02
  0.00000000E+00  0.11153702E+01 -0.13790864E-04  0.34297303E-02  0.34297580E-02 -0.31953551E-02  0.15655782E-03  0.31991882E-02  0.00000000E+00  0.00000000E+00  0.00000000E+00 -0.25340466E-03  0.10304384E-02  0.10611396E-02 -0.34384936E-03  0.13980529E-02  0.14397168E-02
  0.00000000E+00  0.12049172E+01 -0.36740192E-03  0.12453007E-02  0.12983674E-02 -0.11746177E-02 -0.27860158E-03  0.12072057E-02  0.00000000E+00  0.00000000E+00  0.00000000E+00 -0.20108133E-03  0.34827235E-03  0.40215337E-03 -0.27283209E-03  0.47252616E-03  0.54563570E-03
  0.00000000E+00  0.13045844E+01 -0.25004580E-03  0.36429901E-03  0.44185594E-03 -0.34979226E-03 -0.21299710E-03  0.40953924E-03  0.00000000E+00  0.00000000E+00  0.00000000E+00 -0.10185860E-03  0.91682150E-04  0.13704303E-03 -0.13820069E-03  0.12438943E-03  0.18593590E-03
  0.00000000E+00  0.14155157E+01 -0.10884207E-03  0.77455427E-04  0.13358869E-03 -0.77118618E-04 -0.96413585E-04  0.12346198E-03  0.00000000E+00  0.00000000E+00  0.00000000E+00 -0.38501409E-04  0.15489745E-04  0.41500490E-04 -0.52237346E-04  0.21015145E-04  0.56306098E-04
  0.00000000E+00  0.15389841E+01 -0.34472384E-04  0.80606679E-05  0.35402254E-04 -0.91741488E-05 -0.31343367E-04  0.32658409E-04  0.00000000E+00  0.00000000E+00  0.00000000E+00 -0.11011163E-04 -0.65949465E-07  0.11011361E-04 -0.14939381E-04 -0.89642344E-07  0.14939650E-04
  0.00000000E+00  0.16764065E+01 -0.79532115E-05 -0.16626031E-05  0.81251352E-05  0.10802618E-05 -0.73590835E-05  0.74379484E-05  0.00000000E+00  0.00000000E+00  0.00000000E+00 -0.22895090E-05 -0.10815248E-05  0.25321033E-05 -0.31062224E-05 -0.14673671E-05  0.34353724E-05
  0.00000000E+00  0.18293599E+01 -0.12110691E-05 -0.98457175E-06  0.15607914E-05  0.85897439E-06 -0.11793716E-05  0.14590252E-05  0.00000000E+00  0.00000000E+00  0.00000000E+00 -0.29573837E-06 -0.38647168E-06  0.48664314E-06 -0.40123944E-06 -0.52434467E-06  0.66025027E-06
  0.00000000E+00  0.19995996E+01 -0.93939082E-07 -0.24799983E-06  0.26519515E-06  0.20565713E-06 -0.88132183E-07  0.22374570E-06  0.00000000E+00  0.00000000E+00  0.00000000E+00 -0.10515041E-07 -0.82132243E-07  0.82802605E-07 -0.14265216E-07 -0.11143038E-06  0.11233978E-06
  0.00000000E+00  0.21890791E+01  0.10452350E-07 -0.26222923E-07  0.28229299E-07  0.35430884E-07  0.20252656E-08  0.35488720E-07  0.00000000E+00  0.00000000E+00  0.00000000E+00  0.50841361E-08 -0.72229535E-08  0.88328647E-08  0.68977694E-08 -0.97992423E-08  0.11983504E-07
  0.00000000E+00  0.23999731E+01  0.11088492E-08 -0.64510334E-08  0.65456381E-08 -0.13115764E-08  0.37727751E-08  0.39942540E-08  0.00000000E+00  0.00000000E+00  0.00000000E+00  0.80619582E-09 -0.18831606E-08  0.20484740E-08  0.10937643E-08 -0.25549213E-08  0.27791983E-08
  0.00000000E+00  0.26347015E+01  0.91062327E-09  0.25591569E-08  0.27163429E-08  0.22750356E-08 -0.46863763E-09  0.23228018E-08  0.00000000E+00  0.00000000E+00  0.00000000E+00  0.91736505E-10  0.84574325E-09  0.85070396E-09  0.12446159E-09  0.11474357E-08  0.11541661E-08
  0.00000000E+00  0.28959582E+01 -0.20248632E-09 -0.15314222E-08  0.15447506E-08 -0.13456466E-08  0.30005088E-09  0.13786933E-08  0.00000000E+00  0.00000000E+00  0.00000000E+00  0.49398470E-10 -0.48170845E-09  0.48423470E-09  0.67017546E-10 -0.65353901E-09  0.65696620E-09
  0.00000000E+00  0.31867412E+01  0.37427822E-10  0.87424410E-09  0.87504491E-09  0.76488227E-09 -0.84955093E-10  0.76958577E-09  0.00000000E+00  0.00000000E+00  0.00000000E+00 -0.52016507E-10  0.26973900E-09  0.27470866E-09 -0.70569685E-10  0.36595471E-09  0.37269684E-09
  0.00000000E+00  0.35103875E+01  0.25426006E-10 -0.47345960E-09  0.47414183E-09 -0.41824745E-09  0.62368916E-11  0.41829395E-09  0.00000000E+00  0.00000000E+00  0.00000000E+00  0.42143423E-10 -0.14298899E-09  0.14907018E-09  0.57174955E-10 -0.19399083E-09  0.20224099E-09
  0.00000000E+00  0.38706113E+01 -0.36198412E-10  0.24578720E-09  0.24843847E-09  0.21877356E-09  0.17067117E-10  0.21943827E-09  0.00000000E+00  0.00000000E+00  0.00000000E+00 -0.28925714E-10  0.72637433E-10  0.78184996E-10 -0.39242658E-10  0.98545377E-10  0.10607157E-09
  0.00000000E+00  0.42715463E+01  0.29312692E-10 -0.12249003E-09  0.12594856E-09 -0.10980160E-09 -0.18471808E-10  0.11134451E-09  0.00000000E+00  0.00000000E+00  0.00000000E+00  0.17876040E-10 -0.35416753E-10  0.39672398E-10  0.24251791E-10 -0.48048774E-10  0.53822245E-10
  0.00000000E+00  0.47177936E+01 -0.19416277E-10  0.58749608E-10  0.61874941E-10  0.53021045E-10  0.13602442E-10  0.54738082E-10  0.00000000E+00  0.00000000E+00  0.00000000E+00 -0.10221495E-10  0.16614728E-10  0.19507131E-10 -0.13867084E-10  0.22540560E-10  0.26464559E-10
  0.00000000E+00  0.52144744E+01  0.11459206E-10 -0.27191008E-10  0.29507022E-10 -0.24701705E-10 -0.84872190E-11  0.26119095E-10  0.00000000E+00  0.00000000E+00  0.00000000E+00  0.54926354E-11 -0.75177254E-11  0.93104908E-11  0.74516034E-11 -0.10198963E-10  0.12631122E-10
  0.00000000E+00  0.57672883E+01 -0.62422730E-11  0.12177142E-10  0.13683887E-10  0.11134067E-10  0.47857785E-11  0.12119040E-10  0.00000000E+00  0.00000000E+00  0.00000000E+00 -0.28024302E-11  0.32892903E-11  0.43212319E-11 -0.38019129E-11  0.44624161E-11  0.58623971E-11
  0.00000000E+00  0.63825793E+01  0.31981647E-11 -0.52910760E-11  0.61825353E-11 -0.48688194E-11 -0.25105800E-11  0.54779936E-11  0.00000000E+00  0.00000000E+00  0.00000000E+00  0.13678173E-11 -0.13952952E-11  0.19539123E-11  0.18556407E-11 -0.18929200E-11  0.26507638E-11
  0.00000000E+00  0.70674085E+01 -0.15592373E-11  0.22365083E-11  0.27263878E-11  0.20710605E-11  0.12452831E-11  0.24166137E-11  0.00000000E+00  0.00000000E+00  0.00000000E+00 -0.64231494E-12  0.57523946E-12  0.86224644E-12 -0.87138993E-12  0.78039343E-12  0.11697582E-11
  0.00000000E+00  0.78296348E+01  0.72950912E-12 -0.92211015E-12  0.11757851E-11 -0.85881601E-12 -0.59003982E-12  0.10419750E-11  0.00000000E+00  0.00000000E+00  0.00000000E+00  0.29174236E-12 -0.23119430E-12  0.37224241E-12  0.39578753E-12 -0.31364632E-12  0.50499681E-12
  0.00000000E+00  0.86780053E+01 -0.32935723E-12  0.37162633E-12  0.49657056E-12  0.34827124E-12  0.26916857E-12  0.44016427E-12  0.00000000E+00  0.00000000E+00  0.00000000E+00 -0.12856563E-12  0.90713315E-13  0.15734683E-12 -0.17441575E-12  0.12306431E-12  0.21346118E-12
  0.00000000E+00  0.96222558E+01  0.14418237E-12 -0.14674477E-12  0.20572453E-12 -0.13843469E-12 -0.11887081E-12  0.18246763E-12  0.00000000E+00  0.00000000E+00  0.00000000E+00  0.55150267E-13 -0.34820102E-13  0.65222630E-13  0.74818207E-13 -0.47237827E-13  0.88482633E-13
  0.00000000E+00  0.10673222E+02 -0.61459443E-13  0.56907674E-13  0.83760053E-13  0.54037285E-13  0.51036202E-13  0.74328474E-13  0.00000000E+00  0.00000000E+00  0.00000000E+00 -0.23108278E-13  0.13109447E-13  0.26567840E-13 -0.31349183E-13  0.17784564E-13  0.36042503E-13
  0.00000000E+00  0.11842966E+02  0.25605590E-13 -0.21727358E-13  0.33581607E-13 -0.20767294E-13 -0.21395451E-13  0.29816872E-13  0.00000000E+00  0.00000000E+00  0.00000000E+00  0.94871775E-14 -0.48527847E-14  0.10656268E-13  0.12870478E-13 -0.65833786E-14  0.14456489E-13
  0.00000000E+00  0.13144909E+02 -0.10497286E-13  0.82105787E-14  0.13326913E-13  0.79025371E-14  0.88263928E-14  0.11847164E-13  0.00000000E+00  0.00000000E+00  0.00000000E+00 -0.38400472E-14  0.17751877E-14  0.42305146E-14 -0.52094666E-14  0.24082475E-14  0.57391810E-14
  0.00000000E+00  0.14593994E+02  0.43614823E-14 -0.31474253E-14  0.53785513E-14 -0.30584201E-14 -0.37054445E-14  0.48046074E-14  0.00000000E+00  0.00000000E+00  0.00000000E+00  0.15767725E-14 -0.65631539E-15  0.17079114E-14  0.21390692E-14 -0.89036590E-15  0.23169740E-14
  0.00000000E+00  0.16206850E+02 -0.21531152E-14  0.13996656E-14  0.25680671E-14  0.13912931E-14  0.18820567E-14  0.23404773E-14  0.00000000E+00  0.00000000E+00  0.00000000E+00 -0.76739414E-15  0.27647840E-15  0.81568013E-15 -0.10410544E-14  0.37507340E-15  0.11065597E-14
  0.00000000E+00  0.18001985E+02  0.20379394E-14 -0.11086050E-14  0.23199574E-14 -0.11929903E-14 -0.19457366E-14  0.22823489E-14  0.00000000E+00  0.00000000E+00  0.00000000E+00  0.71078920E-15 -0.19491549E-15  0.73703008E-15  0.96426180E-15 -0.26442386E-15  0.99986039E-15
  0.00000000E+00  0.20000000E+02  0.23521719E-13 -0.16470613E-13  0.28715019E-13 -0.23073076E-30  0.29050787E-30  0.37098721E-30  0.00000000E+00  0.00000000E+00  0.00000000E+00  0.84720122E-14 -0.33872752E-14  0.91240684E-14  0.11493171E-13 -0.45951932E-14  0.12377753E-13
  0.10000000E+00  0.00000000E+00  0.46480143E-01 -0.10492450E+00  0.11475868E+00 -0.43932134E-15  0.71660016E-15  0.84054686E-15  0.00000000E+00  0.00000000E+00  0.00000000E+00 -0.47059431E-02  0.46897697E-01  0.47133214E-01  0.26790838E-01  0.41536803E-01  0.49427270E-01
  0.10000000E+00  0.21688635E-01  0.53521490E-01 -0.10459319E+00  0.11749163E+00  0.85377543E-02 -0.43113229E-01  0.43950469E-01  0.00000000E+00  0.00000000E+00  0.00000000E+00 -0.71932443E-02  0.47716226E-01  0.48255373E-01  0.21181606E-01  0.53251226E-01  0.57309280E-01
  0.10000000E+00  0.43300964E-01  0.60192074E-01 -0.10751460E+00  0.12321719E+00 -0.16701807E-01 -0.18112726E-01  0.24637800E-01  0.00000000E+00  0.00000000E+00  0.00000000E+00 -0.92578402E-02  0.49792231E-01  0.50645571E-01  0.16953177E-01  0.64199945E-01  0.66400626E-01
  0.10000000E+00  0.64837254E-01  0.62942723E-01 -0.11426565E+00  0.13045469E+00 -0.27237905E-01 -0.27161178E-01  0.38465999E-01  0.00000000E+00  0.00000000E+00  0.00000000E+00 -0.94598379E-02  0.52847318E-01  0.53687313E-01  0.17000248E-01  0.69303177E-01  0.71357822E-01
  0.10000000E+00  0.86297773E-01  0.67983643E-01 -0.12408272E+00  0.14148604E+00 -0.46211712E-01 -0.21275332E-01  0.50873982E-01  0.00000000E+00  0.00000000E+00  0.00000000E+00 -0.10155432E-01  0.57340540E-01  0.58232897E-01  0.16495140E-01  0.78434970E-01  0.80150696E-01
  0.10000000E+00  0.10768279E+00  0.69667878E-01 -0.13821520E+00  0.15478066E+00 -0.58135533E-01 -0.35380694E-01  0.68055372E-01  0.00000000E+00  0.00000000E+00  0.00000000E+00 -0.91459869E-02  0.63123839E-01  0.63782977E-01  0.19910471E-01  0.83093143E-01  0.85445288E-01
  0.10000000E+00  0.12899256E+00  0.76218403E-01 -0.15582573E+00  0.17346729E+00 -0.80820462E-01 -0.30809998E-01  0.86493948E-01  0.00000000E+00  0.00000000E+00  0.00000000E+00 -0.94877853E-02  0.70774541E-01  0.71407659E-01  0.20861214E-01  0.96364298E-01  0.98596491E-01
  0.10000000E+00  0.15022736E+00  0.77422803E-01 -0.17913131E+00  0.19514691E+00 -0.97587855E-01 -0.47847241E-01  0.10868647E+00  0.00000000E+00  0.00000000E+00  0.00000000E+00 -0.72461309E-02  0.80097698E-01  0.80424795E-01  0.27319912E-01  0.10272281E+00  0.10629372E+00
  0.10000000E+00  0.17138746E+00  0.86025828E-01 -0.20719656E+00  0.22434540E+00 -0.12686545E+00 -0.43982536E-01  0.13427325E+00  0.00000000E+00  0.00000000E+00  0.00000000E+00 -0.72176992E-02  0.92151320E-01  0.92433549E-01  0.29630792E-01  0.12237648E+00  0.12591261E+00
  0.10000000E+00  0.19247310E+00  0.86853371E-01 -0.24327021E+00  0.25830971E+00 -0.15203668E+00 -0.63850780E-01  0.16490019E+00  0.00000000E+00  0.00000000E+00  0.00000000E+00 -0.35487324E-02  0.10679491E+00  0.10685386E+00  0.39336575E-01  0.13237589E+00  0.13809686E+00
  0.10000000E+00  0.21348456E+00  0.97225576E-01 -0.28643945E+00  0.30249029E+00 -0.19170666E+00 -0.60726306E-01  0.20109482E+00  0.00000000E+00  0.00000000E+00  0.00000000E+00 -0.24893600E-02  0.12551503E+00  0.12553972E+00  0.43388282E-01  0.16094249E+00  0.16668841E+00
  0.10000000E+00  0.23442209E+00  0.96658824E-01 -0.34111998E+00  0.35455009E+00 -0.23017681E+00 -0.83241193E-01  0.24476614E+00  0.00000000E+00  0.00000000E+00  0.00000000E+00  0.39710132E-02  0.14827138E+00  0.14832455E+00  0.56960774E-01  0.17702219E+00  0.18596071E+00
  0.10000000E+00  0.25528596E+00  0.10821521E+00 -0.40720811E+00  0.42134188E+00 -0.28583971E+00 -0.80198995E-01  0.29687744E+00  0.00000000E+00  0.00000000E+00  0.00000000E+00  0.74096722E-02  0.17728151E+00  0.17743629E+00  0.63698448E-01  0.21756127E+00  0.22669451E+00
  0.10000000E+00  0.27607642E+00  0.10566139E+00 -0.49076821E+00  0.50201371E+00 -0.34494375E+00 -0.10447510E+00  0.36041814E+00  0.00000000E+00  0.00000000E+00  0.00000000E+00  0.18442214E-01  0.21276475E+00  0.21356253E+00  0.82477307E-01  0.24273211E+00  0.25636182E+00
  0.10000000E+00  0.29679374E+00  0.11814304E+00 -0.59300120E+00  0.60465543E+00 -0.42540549E+00 -0.10011270E+00  0.43702675E+00  0.00000000E+00  0.00000000E+00  0.00000000E+00  0.27059740E-01  0.25716647E+00  0.25858620E+00  0.93775594E-01  0.29908557E+00  0.31344224E+00
  0.10000000E+00  0.31743817E+00  0.11214939E+00 -0.72071622E+00  0.72938971E+00 -0.51640094E+00 -0.12452238E+00  0.53120218E+00  0.00000000E+00  0.00000000E+00  0.00000000E+00  0.47591302E-01  0.31056501E+00  0.31419032E+00  0.12007465E+00  0.33746888E+00  0.35819432E+00
  0.10000000E+00  0.33800996E+00  0.12362799E+00 -0.87658883E+00  0.88526372E+00 -0.63475718E+00 -0.11669423E+00  0.64539462E+00  0.00000000E+00  0.00000000E+00  0.00000000E+00  0.66598368E-01  0.37673403E+00  0.38257532E+00  0.13890037E+00  0.41528230E+00  0.43789576E+00
  0.10000000E+00  0.35850938E+00  0.10549982E+00 -0.10619335E+01  0.10671612E+01 -0.77292450E+00 -0.13879551E+00  0.78528751E+00  0.00000000E+00  0.00000000E+00  0.00000000E+00  0.10171414E+00  0.45922937E+00  0.47035878E+00  0.17633536E+00  0.47375948E+00  0.50551182E+00
  0.10000000E+00  0.37893667E+00  0.89778944E-01 -0.12665702E+01  0.12697481E+01 -0.94302270E+00 -0.12261916E+00  0.95096123E+00  0.00000000E+00  0.00000000E+00  0.00000000E+00  0.13123406E+00  0.56529292E+00  0.58032617E+00  0.20746325E+00  0.58207137E+00  0.61793857E+00
  0.10000000E+00  0.39929210E+00 -0.89021621E-02 -0.14553777E+01  0.14554049E+01 -0.11341639E+01 -0.13060522E+00  0.11416591E+01  0.00000000E+00  0.00000000E+00  0.00000000E+00  0.18059876E+00  0.70817462E+00  0.73084007E+00  0.26130277E+00  0.67314516E+00  0.72208278E+00
  0.10000000E+00  0.41957591E+00 -0.16635999E+00 -0.15629446E+01  0.15717734E+01 -0.13392001E+01 -0.79015514E-01  0.13415291E+01  0.00000000E+00  0.00000000E+00  0.00000000E+00  0.20934897E+00  0.89698321E+00  0.92108950E+00  0.30789765E+00  0.83896911E+00  0.89368347E+00
  0.10000000E+00  0.43978835E+00 -0.53815659E+00 -0.15014025E+01  0.15949363E+01 -0.15272671E+01 -0.18822116E-01  0.15273830E+01  0.00000000E+00  0.00000000E+00  0.00000000E+00  0.24213005E+00  0.11551926E+01  0.11802952E+01  0.38126092E+00  0.97316570E+00  0.10451849E+01
  0.10000000E+00  0.45992968E+00 -0.10650240E+01 -0.11631272E+01  0.15770672E+01 -0.16532779E+01  0.16868636E+00  0.16618613E+01  0.00000000E+00  0.00000000E+00  0.00000000E+00  0.16374684E+00  0.14688793E+01  0.14779782E+01  0.45121798E+00  0.11237951E+01  0.12109968E+01
  0.10000000E+00  0.48000015E+00 -0.20238860E+01 -0.71190281E+00  0.21454417E+01 -0.16764209E+01  0.45628881E+00  0.17374080E+01  0.00000000E+00  0.00000000E+00  0.00000000E+00 -0.90256061E-01  0.20926002E+01  0.20945457E+01  0.53379362E+00  0.11867330E+01  0.13012574E+01
  0.10000000E+00  0.50000000E+00 -0.24377721E+01 -0.92096427E+00  0.26059370E+01 -0.16527118E+01  0.96255980E+00  0.19125841E+01  0.00000000E+00  0.00000000E+00  0.00000000E+00 -0.14316467E+01  0.83436411E+00  0.16570383E+01  0.57562953E+00  0.12134245E+01  0.13430370E+01
  0.10000000E+00  0.51999989E+00 -0.82513573E+00 -0.20995773E+00  0.85142892E+00 -0.16665262E+01  0.13234128E+01  0.21280816E+01  0.00000000E+00  0.00000000E+00  0.00000000E+00 -0.10258894E-01  0.57085911E+00  0.57095129E+00  0.56052020E+00  0.11417252E+01  0.12718960E+01
  0.10000000E+00  0.54226011E+00  0.27423199E+00  0.62070962E+00  0.67858943E+00 -0.15284019E+01  0.13331666E+01  0.20281384E+01  0.00000000E+00  0.00000000E+00  0.00000000E+00  0.17777245E+00  0.60542958E+00  0.63098972E+00  0.45587289E+00  0.10357347E+01  0.11316212E+01
  0.10000000E+00  0.56703610E+00  0.70126163E+00  0.10678136E+01  0.12774951E+01 -0.13956684E+01  0.11715450E+01  0.18221987E+01  0.00000000E+00  0.00000000E+00  0.00000000E+00  0.19193443E+00  0.62222289E+00  0.65115294E+00  0.31577071E+00  0.84977154E+00  0.90654444E+00
  0.10000000E+00  0.59461219E+00  0.68771680E+00  0.11961936E+01  0.13797947E+01 -0.11445762E+01  0.86356083E+00  0.14338033E+01  0.00000000E+00  0.00000000E+00  0.00000000E+00  0.13000021E+00  0.49611492E+00  0.51286457E+00  0.16797072E+00  0.67731639E+00  0.69783355E+00
  0.10000000E+00  0.62530483E+00  0.46639822E+00  0.10009456E+01  0.11042733E+01 -0.94576445E+00  0.56105802E+00  0.10996620E+01  0.00000000E+00  0.00000000E+00  0.00000000E+00  0.50778982E-01  0.37010425E+00  0.37357149E+00  0.64336848E-01  0.48836919E+00  0.49258876E+00
  0.10000000E+00  0.65946626E+00  0.22680896E+00  0.76548222E+00  0.79837669E+00 -0.68475771E+00  0.29857985E+00  0.74702279E+00  0.00000000E+00  0.00000000E+00  0.00000000E+00 -0.31966981E-02  0.26285306E+00  0.26287249E+00 -0.99773241E-02  0.35101894E+00  0.35116071E+00
  0.10000000E+00  0.69748849E+00  0.76212993E-01  0.49806066E+00  0.50385796E+00 -0.51345442E+00  0.12914194E+00  0.52944601E+00  0.00000000E+00  0.00000000E+00  0.00000000E+00 -0.26599587E-01  0.16560584E+00  0.16772845E+00 -0.37576665E-01  0.22227802E+00  0.22543186E+00
  0.10000000E+00  0.73980787E+00 -0.15941061E-01  0.33398821E+00  0.33436842E+00 -0.31729863E+00  0.23109035E-01  0.31813904E+00  0.00000000E+00  0.00000000E+00  0.00000000E+00 -0.39016945E-01  0.10593788E+00  0.11289445E+00 -0.54275955E-01  0.14256720E+00  0.15254929E+00
  0.10000000E+00  0.78691004E+00 -0.40435158E-01  0.17889828E+00  0.18341100E+00 -0.21387226E+00 -0.26836892E-01  0.21554944E+00  0.00000000E+00  0.00000000E+00  0.00000000E+00 -0.31705497E-01  0.53917638E-01  0.62548783E-01 -0.43287426E-01  0.72539135E-01  0.84473235E-01
  0.10000000E+00  0.83933554E+00 -0.53565901E-01  0.10646657E+00  0.11918236E+00 -0.98651580E-01 -0.39124360E-01  0.10612657E+00  0.00000000E+00  0.00000000E+00  0.00000000E+00 -0.28065634E-01  0.29146605E-01  0.40462383E-01 -0.38295444E-01  0.38902446E-01  0.54588839E-01
  0.10000000E+00  0.89768599E+00 -0.32172999E-01  0.37361140E-01  0.49304733E-01 -0.59924516E-01 -0.38279071E-01  0.71107207E-01  0.00000000E+00  0.00000000E+00  0.00000000E+00 -0.14395327E-01  0.88317518E-02  0.16888614E-01 -0.19407732E-01  0.11776284E-01  0.22701122E-01
  0.10000000E+00  0.96263101E+00 -0.27958584E-01  0.20245732E-01  0.34519156E-01 -0.11344010E-01 -0.20582860E-01  0.23501930E-01  0.00000000E+00  0.00000000E+00  0.00000000E+00 -0.11026772E-01  0.38032680E-02  0.11664242E-01 -0.14928624E-01  0.49391165E-02  0.15724461E-01
  0.10000000E+00  0.10349159E+01 -0.66577166E-02  0.37414584E-04  0.66578217E-02 -0.10461881E-01 -0.15968277E-01  0.19090229E-01  0.00000000E+00  0.00000000E+00  0.00000000E+00 -0.22512311E-02 -0.71193520E-03  0.23611212E-02 -0.29694051E-02 -0.93470312E-03  0.31130430E-02
  0.10000000E+00  0.11153702E+01 -0.88829620E-02  0.21031033E-02  0.91285299E-02  0.42055479E-02 -0.16266357E-02  0.45091659E-02  0.00000000E+00  0.00000000E+00  0.00000000E+00 -0.30503802E-02 -0.15745063E-03  0.30544410E-02 -0.41224189E-02 -0.27673617E-03  0.41316971E-02