Title = "Perturbations du champ moyen, PSE linéaire Jet compressible - Rans Francisco n = 0, st =  0.4000"
Variables = x, r, Re(ux), Im(ux), abs(ux), Re(ur), Im(ur), abs(ur),  Re(ut), Im(ut), abs(ut),  Re(rho), Im(rho), abs(rho),  Re(p), Im(p), abs(p)
Zone T = "_FrancCase_10 perturbations PSE",I =  69, J = 201, F = point
  0.00000000E+00  0.00000000E+00 -0.44128042E+00 -0.12324186E+01  0.13090393E+01 -0.15631706E-14  0.23879032E-14  0.28540470E-14  0.00000000E+00  0.00000000E+00  0.00000000E+00  0.59906302E+00  0.21776165E+00  0.63741403E+00  0.61644684E+00  0.22408073E+00  0.65591073E+00
  0.00000000E+00  0.21688635E-01 -0.44228839E+00 -0.12329195E+01  0.13098510E+01 -0.30596440E-01  0.14684047E-01  0.33937640E-01  0.00000000E+00  0.00000000E+00  0.00000000E+00  0.59902404E+00  0.21784901E+00  0.63740724E+00  0.61692118E+00  0.22403108E+00  0.65633960E+00
  0.00000000E+00  0.43300964E-01 -0.44630773E+00 -0.12352541E+01  0.13134090E+01 -0.76488422E-01  0.54403203E-01  0.93862597E-01  0.00000000E+00  0.00000000E+00  0.00000000E+00  0.60013802E+00  0.21765462E+00  0.63838795E+00  0.61896123E+00  0.22318597E+00  0.65797035E+00
  0.00000000E+00  0.64837254E-01 -0.45379545E+00 -0.12391601E+01  0.13196394E+01 -0.11488784E+00  0.82311026E-01  0.14133054E+00  0.00000000E+00  0.00000000E+00  0.00000000E+00  0.60238723E+00  0.21685719E+00  0.64023231E+00  0.62269556E+00  0.22139139E+00  0.66088116E+00
  0.00000000E+00  0.86297773E-01 -0.46395431E+00 -0.12449028E+01  0.13285468E+01 -0.15664711E+00  0.11615100E+00  0.19501121E+00  0.00000000E+00  0.00000000E+00  0.00000000E+00  0.60529329E+00  0.21609537E+00  0.64271081E+00  0.62787193E+00  0.21891852E+00  0.66494246E+00
  0.00000000E+00  0.10768279E+00 -0.47768432E+00 -0.12520598E+01  0.13400881E+01 -0.19415382E+00  0.14364723E+00  0.24151653E+00  0.00000000E+00  0.00000000E+00  0.00000000E+00  0.60922626E+00  0.21476954E+00  0.64597414E+00  0.63470950E+00  0.21551177E+00  0.67029954E+00
  0.00000000E+00  0.12899256E+00 -0.49408560E+00 -0.12608114E+01  0.13541662E+01 -0.23583905E+00  0.17868662E+00  0.29588675E+00  0.00000000E+00  0.00000000E+00  0.00000000E+00  0.61386518E+00  0.21352025E+00  0.64993951E+00  0.64288412E+00  0.21152246E+00  0.67678781E+00
  0.00000000E+00  0.15022736E+00 -0.51446762E+00 -0.12707304E+01  0.13709241E+01 -0.27311550E+00  0.20738038E+00  0.34292667E+00  0.00000000E+00  0.00000000E+00  0.00000000E+00  0.61960634E+00  0.21160528E+00  0.65474331E+00  0.65279940E+00  0.20648753E+00  0.68467814E+00
  0.00000000E+00  0.17138746E+00 -0.53666543E+00 -0.12831007E+01  0.13908117E+01 -0.31501836E+00  0.24463592E+00  0.39885248E+00  0.00000000E+00  0.00000000E+00  0.00000000E+00  0.62489838E+00  0.21114621E+00  0.65960647E+00  0.66396489E+00  0.20094088E+00  0.69370499E+00
  0.00000000E+00  0.19247310E+00 -0.56342928E+00 -0.12965185E+01  0.14136523E+01 -0.35239298E+00  0.27545350E+00  0.44727558E+00  0.00000000E+00  0.00000000E+00  0.00000000E+00  0.63088241E+00  0.21035370E+00  0.66502729E+00  0.67697667E+00  0.19420721E+00  0.70428250E+00
  0.00000000E+00  0.21348456E+00 -0.59336330E+00 -0.13108727E+01  0.14389118E+01 -0.39467586E+00  0.31570284E+00  0.50540807E+00  0.00000000E+00  0.00000000E+00  0.00000000E+00  0.63757925E+00  0.20989203E+00  0.67123912E+00  0.69116355E+00  0.18702153E+00  0.71601962E+00
  0.00000000E+00  0.23442209E+00 -0.62806057E+00 -0.13263665E+01  0.14675518E+01 -0.43216248E+00  0.34951015E+00  0.55580730E+00  0.00000000E+00  0.00000000E+00  0.00000000E+00  0.64603157E+00  0.20792446E+00  0.67866735E+00  0.70731560E+00  0.17848295E+00  0.72948717E+00
  0.00000000E+00  0.25528596E+00 -0.66069855E+00 -0.13488662E+01  0.15019862E+01 -0.47494448E+00  0.39351834E+00  0.61678922E+00  0.00000000E+00  0.00000000E+00  0.00000000E+00  0.65327395E+00  0.20885518E+00  0.68584790E+00  0.72456841E+00  0.16953438E+00  0.74413795E+00
  0.00000000E+00  0.27607642E+00 -0.69076369E+00 -0.13819715E+01  0.15449918E+01 -0.51362300E+00  0.43093430E+00  0.67045727E+00  0.00000000E+00  0.00000000E+00  0.00000000E+00  0.66085495E+00  0.21003446E+00  0.69342897E+00  0.74394863E+00  0.15905627E+00  0.76076176E+00
  0.00000000E+00  0.29679374E+00 -0.71040468E+00 -0.14328627E+01  0.15993030E+01 -0.55939158E+00  0.47897885E+00  0.73643715E+00  0.00000000E+00  0.00000000E+00  0.00000000E+00  0.66907065E+00  0.21235402E+00  0.70196137E+00  0.76447418E+00  0.14824549E+00  0.77871529E+00
  0.00000000E+00  0.31743817E+00 -0.72095949E+00 -0.15025786E+01  0.16665908E+01 -0.60330427E+00  0.51996719E+00  0.79645584E+00  0.00000000E+00  0.00000000E+00  0.00000000E+00  0.68155678E+00  0.21044151E+00  0.71330587E+00  0.78753460E+00  0.13580357E+00  0.79915790E+00
  0.00000000E+00  0.33800996E+00 -0.71909759E+00 -0.15935985E+01  0.17483299E+01 -0.65724106E+00  0.57164428E+00  0.87105855E+00  0.00000000E+00  0.00000000E+00  0.00000000E+00  0.69457149E+00  0.21114070E+00  0.72595451E+00  0.81215379E+00  0.12323450E+00  0.82145025E+00
  0.00000000E+00  0.35850938E+00 -0.73102621E+00 -0.16719060E+01  0.18247380E+01 -0.71117917E+00  0.61571424E+00  0.94068052E+00  0.00000000E+00  0.00000000E+00  0.00000000E+00  0.70382696E+00  0.22047925E+00  0.73755237E+00  0.84017473E+00  0.10909250E+00  0.84722768E+00
  0.00000000E+00  0.37893667E+00 -0.80676818E+00 -0.16643088E+01  0.18495401E+01 -0.77204112E+00  0.67115532E+00  0.10229843E+01  0.00000000E+00  0.00000000E+00  0.00000000E+00  0.69872490E+00  0.25749695E+00  0.74466178E+00  0.87045616E+00  0.95164507E-01  0.87564274E+00
  0.00000000E+00  0.39929210E+00 -0.10528248E+01 -0.14060620E+01  0.17565451E+01 -0.81485244E+00  0.71778510E+00  0.10859097E+01  0.00000000E+00  0.00000000E+00  0.00000000E+00  0.66575797E+00  0.34413546E+00  0.74944172E+00  0.90445943E+00  0.79622987E-01  0.90795742E+00
  0.00000000E+00  0.41957591E+00 -0.15884658E+01 -0.69418144E+00  0.17335257E+01 -0.82383349E+00  0.77670839E+00  0.11322445E+01  0.00000000E+00  0.00000000E+00  0.00000000E+00  0.58135128E+00  0.52454150E+00  0.78301539E+00  0.93874563E+00  0.63959527E-01  0.94092199E+00
  0.00000000E+00  0.43978835E+00 -0.25503614E+01  0.70181771E+00  0.26451637E+01 -0.75546238E+00  0.84296312E+00  0.11319497E+01  0.00000000E+00  0.00000000E+00  0.00000000E+00  0.43207455E+00  0.81776699E+00  0.92489527E+00  0.97131136E+00  0.44931221E-01  0.97235002E+00
  0.00000000E+00  0.45992968E+00 -0.39374280E+01  0.27787855E+01  0.48192310E+01 -0.55745047E+00  0.92661242E+00  0.10813702E+01  0.00000000E+00  0.00000000E+00  0.00000000E+00  0.20518554E+00  0.12046738E+01  0.12220229E+01  0.99360649E+00  0.23644466E-01  0.99388778E+00
  0.00000000E+00  0.48000015E+00 -0.55002662E+01  0.48562077E+01  0.73372803E+01 -0.19758861E+00  0.10285527E+01  0.10473595E+01  0.00000000E+00  0.00000000E+00  0.00000000E+00 -0.13603641E+00  0.14729312E+01  0.14791998E+01  0.10000000E+01  0.13877788E-16  0.10000000E+01
  0.00000000E+00  0.50000000E+00 -0.59618362E+01  0.50764358E+01  0.78303059E+01  0.26018196E+00  0.11665785E+01  0.11952405E+01  0.00000000E+00  0.00000000E+00  0.00000000E+00 -0.28028537E+00  0.11032780E+01  0.11383243E+01  0.98507674E+00 -0.16106170E-01  0.98520840E+00
  0.00000000E+00  0.51999989E+00 -0.42178616E+01  0.32824527E+01  0.53446096E+01  0.63510760E+00  0.13024824E+01  0.14490763E+01  0.00000000E+00  0.00000000E+00  0.00000000E+00  0.85990286E-01  0.50930687E+00  0.51651507E+00  0.95274499E+00 -0.17108811E-01  0.95289859E+00
  0.00000000E+00  0.54226011E+00 -0.17746762E+01  0.13387978E+01  0.22230284E+01  0.84359779E+00  0.13914966E+01  0.16272431E+01  0.00000000E+00  0.00000000E+00  0.00000000E+00  0.41578999E+00  0.17824105E+00  0.45238389E+00  0.90300731E+00  0.22746843E-02  0.90301017E+00
  0.00000000E+00  0.56703610E+00  0.19119796E+00  0.25515834E-01  0.19289303E+00  0.87041055E+00  0.14026566E+01  0.16507756E+01  0.00000000E+00  0.00000000E+00  0.00000000E+00  0.59569989E+00  0.38282873E-01  0.59692875E+00  0.83996332E+00  0.38134260E-01  0.84082852E+00
  0.00000000E+00  0.59461219E+00  0.11464944E+01 -0.48810072E+00  0.12460705E+01  0.77165615E+00  0.13456926E+01  0.15512388E+01  0.00000000E+00  0.00000000E+00  0.00000000E+00  0.61563794E+00  0.27996680E-01  0.61627420E+00  0.76842776E+00  0.80874605E-01  0.77267194E+00
  0.00000000E+00  0.62530483E+00  0.13579142E+01 -0.51970822E+00  0.14539696E+01  0.62001682E+00  0.12492383E+01  0.13946387E+01  0.00000000E+00  0.00000000E+00  0.00000000E+00  0.55587108E+00  0.65273380E-01  0.55969033E+00  0.69283565E+00  0.12151730E+00  0.70341147E+00
  0.00000000E+00  0.65946626E+00  0.12102521E+01 -0.36946386E+00  0.12653907E+01  0.46628678E+00  0.11398680E+01  0.12315528E+01  0.00000000E+00  0.00000000E+00  0.00000000E+00  0.47382909E+00  0.10579635E+00  0.48549652E+00  0.61603932E+00  0.15565251E+00  0.63539920E+00
  0.00000000E+00  0.69748849E+00  0.10094020E+01 -0.21704914E+00  0.10324741E+01  0.33050879E+00  0.10308045E+01  0.10824943E+01  0.00000000E+00  0.00000000E+00  0.00000000E+00  0.40057465E+00  0.13318373E+00  0.42213500E+00  0.53910834E+00  0.18241496E+00  0.56913357E+00
  0.00000000E+00  0.73980787E+00  0.85868609E+00 -0.10310461E+00  0.86485395E+00  0.21359447E+00  0.92364429E+00  0.94801971E+00  0.00000000E+00  0.00000000E+00  0.00000000E+00  0.33915909E+00  0.14926623E+00  0.37055269E+00  0.46238509E+00  0.20215432E+00  0.50464477E+00
  0.00000000E+00  0.78691004E+00  0.74961057E+00 -0.16096891E-01  0.74978338E+00  0.11205941E+00  0.81555613E+00  0.82321875E+00  0.00000000E+00  0.00000000E+00  0.00000000E+00  0.28361614E+00  0.15838021E+00  0.32484212E+00  0.38642059E+00  0.21486558E+00  0.44214035E+00
  0.00000000E+00  0.83933554E+00  0.65034562E+00  0.55611884E-01  0.65271901E+00  0.24892186E-01  0.70521310E+00  0.70565228E+00  0.00000000E+00  0.00000000E+00  0.00000000E+00  0.22999056E+00  0.16215143E+00  0.28140495E+00  0.31245085E+00  0.22020246E+00  0.38224947E+00
  0.00000000E+00  0.89768599E+00  0.54686772E+00  0.11321339E+00  0.55846359E+00 -0.46631345E-01  0.59391104E+00  0.59573888E+00  0.00000000E+00  0.00000000E+00  0.00000000E+00  0.17842189E+00  0.16038874E+00  0.23991440E+00  0.24211817E+00  0.21779810E+00  0.32566428E+00
  0.00000000E+00  0.96263101E+00  0.44208662E+00  0.15476328E+00  0.46839326E+00 -0.10099083E+00  0.48454113E+00  0.49495379E+00  0.00000000E+00  0.00000000E+00  0.00000000E+00  0.13057574E+00  0.15302227E+00  0.20116122E+00  0.17720770E+00  0.20777604E+00  0.27308140E+00
  0.00000000E+00  0.10349159E+01  0.34128341E+00  0.17955228E+00  0.38563375E+00 -0.13765212E+00  0.37994944E+00  0.40411593E+00  0.00000000E+00  0.00000000E+00  0.00000000E+00  0.87941537E-01  0.14045803E+00  0.16571714E+00  0.11936739E+00  0.19071265E+00  0.22498864E+00
  0.00000000E+00  0.11153702E+01  0.24812408E+00  0.18804070E+00  0.31132758E+00 -0.15696424E+00  0.28319900E+00  0.32378920E+00  0.00000000E+00  0.00000000E+00  0.00000000E+00  0.51651262E-01  0.12356816E+00  0.13392887E+00  0.70103235E-01  0.16777320E+00  0.18183044E+00
  0.00000000E+00  0.12049172E+01  0.16620816E+00  0.18206248E+00  0.24651957E+00 -0.16034829E+00  0.19699283E+00  0.25400345E+00  0.00000000E+00  0.00000000E+00  0.00000000E+00  0.22481995E-01  0.10352159E+00  0.10593470E+00  0.30513275E-01  0.14055609E+00  0.14383002E+00
  0.00000000E+00  0.13045844E+01  0.97362713E-01  0.16353796E+00  0.19032646E+00 -0.15012913E+00  0.12387154E+00  0.19463534E+00  0.00000000E+00  0.00000000E+00  0.00000000E+00  0.93667172E-03  0.81854791E-01  0.81860150E-01  0.12634710E-02  0.11113537E+00  0.11114255E+00
  0.00000000E+00  0.14155157E+01  0.43839112E-01  0.13633147E+00  0.14320662E+00 -0.12969327E+00  0.65747697E-01  0.14540668E+00  0.00000000E+00  0.00000000E+00  0.00000000E+00 -0.13079814E-01  0.60225519E-01  0.61629495E-01 -0.17763598E-01  0.81767674E-01  0.83674954E-01
  0.00000000E+00  0.15389841E+01  0.62930986E-02  0.10451924E+00  0.10470852E+00 -0.10294801E+00  0.23341954E-01  0.10556107E+00  0.00000000E+00  0.00000000E+00  0.00000000E+00 -0.20194911E-01  0.40313414E-01  0.45088865E-01 -0.27421652E-01  0.54732398E-01  0.61217501E-01
  0.00000000E+00  0.16764065E+01 -0.16136865E-01  0.72337992E-01  0.74116014E-01 -0.74208244E-01 -0.38278282E-02  0.74306903E-01  0.00000000E+00  0.00000000E+00  0.00000000E+00 -0.21625012E-01  0.23526691E-01  0.31955380E-01 -0.29361614E-01  0.31940404E-01  0.43385410E-01
  0.00000000E+00  0.18293599E+01 -0.25666039E-01  0.43794793E-01  0.50761496E-01 -0.47296765E-01 -0.17680065E-01  0.50493254E-01  0.00000000E+00  0.00000000E+00  0.00000000E+00 -0.19005416E-01  0.10804500E-01  0.21861909E-01 -0.25804435E-01  0.14669135E-01  0.29682526E-01
  0.00000000E+00  0.19995996E+01 -0.25618949E-01  0.21353370E-01  0.33351116E-01 -0.25260363E-01 -0.21245771E-01  0.33007101E-01  0.00000000E+00  0.00000000E+00  0.00000000E+00 -0.14179275E-01  0.24588224E-02  0.14390888E-01 -0.19251137E-01  0.33376312E-02  0.19538323E-01
  0.00000000E+00  0.21890791E+01 -0.20001548E-01  0.64068822E-02  0.21002621E-01 -0.97520506E-02 -0.18244227E-01  0.20687057E-01  0.00000000E+00  0.00000000E+00  0.00000000E+00 -0.88672328E-02 -0.19129394E-02  0.90712268E-02 -0.12038765E-01 -0.25974971E-02  0.12315797E-01
  0.00000000E+00  0.23999731E+01 -0.12534510E-01 -0.14863463E-02  0.12622328E-01 -0.82508531E-03 -0.12334664E-01  0.12362229E-01  0.00000000E+00  0.00000000E+00  0.00000000E+00 -0.43704123E-02 -0.32560796E-02  0.54500054E-02 -0.59336233E-02 -0.44208273E-02  0.73994324E-02
  0.00000000E+00  0.26347015E+01 -0.59535321E-02 -0.40255833E-02  0.71867841E-02  0.27665208E-02 -0.64371214E-02  0.70064377E-02  0.00000000E+00  0.00000000E+00  0.00000000E+00 -0.13626904E-02 -0.27900947E-02  0.31050851E-02 -0.18500551E-02 -0.37880873E-02  0.42157216E-02
  0.00000000E+00  0.28959582E+01 -0.16645400E-02 -0.34807668E-02  0.38582938E-02  0.30072004E-02 -0.22310556E-02  0.37444443E-02  0.00000000E+00  0.00000000E+00  0.00000000E+00  0.12576964E-03 -0.16635506E-02  0.16682981E-02  0.17078282E-03 -0.22585567E-02  0.22650045E-02
  0.00000000E+00  0.31867412E+01  0.27832656E-03 -0.19198378E-02  0.19399080E-02  0.18730885E-02 -0.96715872E-04  0.18755838E-02  0.00000000E+00  0.00000000E+00  0.00000000E+00  0.51811164E-03 -0.66086269E-03  0.83974947E-03  0.70343162E-03 -0.89721723E-03  0.11400942E-02
  0.00000000E+00  0.35103875E+01  0.65137325E-03 -0.63205584E-03  0.90762420E-03  0.72060383E-03  0.49493883E-03  0.87420497E-03  0.00000000E+00  0.00000000E+00  0.00000000E+00  0.38085013E-03 -0.97166847E-04  0.39304989E-03  0.51706554E-03 -0.13191543E-03  0.53362764E-03
  0.00000000E+00  0.38706113E+01  0.39145025E-03 -0.15575112E-04  0.39175998E-03  0.89838885E-04  0.36513785E-03  0.37602749E-03  0.00000000E+00  0.00000000E+00  0.00000000E+00  0.15050637E-03  0.78447231E-04  0.16972370E-03  0.20433521E-03  0.10650543E-03  0.23042631E-03
  0.00000000E+00  0.42715463E+01  0.11066378E-03  0.10800714E-03  0.15463510E-03 -0.79735428E-04  0.12464638E-03  0.14796776E-03  0.00000000E+00  0.00000000E+00  0.00000000E+00  0.18370240E-04  0.64462668E-04  0.67029108E-04  0.24939947E-04  0.87517880E-04  0.91002090E-04
  0.00000000E+00  0.47177936E+01 -0.59190110E-05  0.54986977E-04  0.55304632E-04 -0.52507708E-04  0.52354154E-05  0.52768068E-04  0.00000000E+00  0.00000000E+00  0.00000000E+00 -0.14069430E-04  0.19424429E-04  0.23984522E-04 -0.19101407E-04  0.26371424E-04  0.32562489E-04
  0.00000000E+00  0.52144744E+01 -0.15930444E-04  0.78173249E-05  0.17745129E-04 -0.10422509E-04 -0.13286863E-04  0.16886961E-04  0.00000000E+00  0.00000000E+00  0.00000000E+00 -0.76840923E-05 -0.48584464E-06  0.76994363E-05 -0.10432241E-04 -0.65963618E-06  0.10453075E-04
  0.00000000E+00  0.57672883E+01 -0.39754560E-05 -0.31272394E-05  0.50580507E-05  0.21129412E-05 -0.43129234E-05  0.48026897E-05  0.00000000E+00  0.00000000E+00  0.00000000E+00 -0.82503200E-06 -0.20347991E-05  0.21956970E-05 -0.11200867E-05 -0.27625223E-05  0.29809602E-05
  0.00000000E+00  0.63825793E+01  0.43602569E-06 -0.11928243E-05  0.12700190E-05  0.11914357E-05  0.16505556E-06  0.12028144E-05  0.00000000E+00  0.00000000E+00  0.00000000E+00  0.42129322E-06 -0.35597192E-06  0.55154690E-06  0.57196290E-06 -0.48327833E-06  0.74879871E-06
  0.00000000E+00  0.70674085E+01  0.27405561E-06  0.52724382E-07  0.27908124E-06  0.68092315E-08  0.26374417E-06  0.26383205E-06  0.00000000E+00  0.00000000E+00  0.00000000E+00  0.92072736E-07  0.78911895E-07  0.12126201E-06  0.12500037E-06  0.10713338E-06  0.16462884E-06
  0.00000000E+00  0.78296348E+01 -0.11544357E-07  0.52439413E-07  0.53695104E-07 -0.50845355E-07 -0.20219223E-10  0.50845359E-07  0.00000000E+00  0.00000000E+00  0.00000000E+00 -0.15653033E-07  0.17322375E-07  0.23346994E-07 -0.21250974E-07  0.23517200E-07  0.31696413E-07
  0.00000000E+00  0.86780053E+01 -0.82859961E-08 -0.42353766E-08  0.93057051E-08  0.23014297E-08 -0.84517543E-08  0.87594937E-08  0.00000000E+00  0.00000000E+00  0.00000000E+00 -0.22197258E-08 -0.33849562E-08  0.40478527E-08 -0.30135368E-08 -0.45954867E-08  0.54954438E-08
  0.00000000E+00  0.96222558E+01  0.13364580E-08 -0.83225623E-09  0.15744112E-08  0.99153393E-09  0.10231027E-08  0.14247381E-08  0.00000000E+00  0.00000000E+00  0.00000000E+00  0.68451764E-09 -0.26911797E-10  0.68504646E-09  0.92931269E-09 -0.36534997E-10  0.93003058E-09
  0.00000000E+00  0.10673222E+02 -0.80677523E-10  0.27373534E-09  0.28537676E-09 -0.24771173E-09  0.72121217E-11  0.24781669E-09  0.00000000E+00  0.00000000E+00  0.00000000E+00 -0.89455329E-10  0.86168858E-10  0.12420679E-09 -0.12144591E-09  0.11698393E-09  0.16862488E-09
  0.00000000E+00  0.11842966E+02 -0.11585275E-10 -0.52477119E-10  0.53740735E-10  0.38759139E-10 -0.36875930E-10  0.53498645E-10  0.00000000E+00  0.00000000E+00  0.00000000E+00  0.69150727E-11 -0.22350724E-10  0.23396006E-10  0.93880128E-11 -0.30343585E-10  0.31762682E-10
  0.00000000E+00  0.13144909E+02  0.48647651E-11  0.68396350E-11  0.83932441E-11 -0.37041828E-11  0.14403105E-10  0.14871799E-10  0.00000000E+00  0.00000000E+00  0.00000000E+00  0.36878581E-12  0.36362645E-11  0.36549175E-11  0.50065802E-12  0.49366238E-11  0.49619465E-11
  0.00000000E+00  0.14593994E+02 -0.39368727E-12  0.43020365E-12  0.58315079E-12 -0.21999696E-12 -0.47758644E-11  0.47809287E-11  0.00000000E+00  0.00000000E+00  0.00000000E+00 -0.24174555E-12  0.78056630E-13  0.25403493E-12 -0.32819276E-12  0.10597006E-12  0.34487699E-12
  0.00000000E+00  0.16206850E+02 -0.71898160E-12 -0.14348691E-11  0.16049249E-11  0.16390406E-12  0.18253907E-11  0.18327345E-11  0.00000000E+00  0.00000000E+00  0.00000000E+00  0.36722599E-13 -0.69811143E-12  0.69907662E-12  0.49853917E-13 -0.94775866E-12  0.94906896E-12
  0.00000000E+00  0.18001985E+02  0.10970145E-11  0.26280555E-11  0.28478266E-11  0.64822125E-12 -0.11239389E-11  0.12974704E-11  0.00000000E+00  0.00000000E+00  0.00000000E+00 -0.15039648E-12  0.12314886E-11  0.12406382E-11 -0.20417805E-12  0.16718708E-11  0.16842923E-11
  0.00000000E+00  0.20000000E+02 -0.27257930E-12  0.11870904E-11  0.12179832E-11  0.45494337E-28  0.50381442E-28  0.67882431E-28  0.00000000E+00  0.00000000E+00  0.00000000E+00 -0.35884163E-12  0.39094909E-12  0.53066798E-12 -0.48716306E-12  0.53075213E-12  0.72043436E-12
  0.10000000E+00  0.00000000E+00 -0.19326841E+00 -0.14419194E+01  0.14548142E+01 -0.59885420E-15 -0.20279434E-13  0.20288274E-13  0.00000000E+00  0.00000000E+00  0.00000000E+00  0.60906222E+00  0.27070543E+00  0.66651198E+00  0.95767797E+00 -0.40166645E-01  0.95851993E+00
  0.10000000E+00  0.21688635E-01 -0.19423148E+00 -0.14430581E+01  0.14560709E+01 -0.39865303E-01  0.17920839E-02  0.39905563E-01  0.00000000E+00  0.00000000E+00  0.00000000E+00  0.60887448E+00  0.27098614E+00  0.66645451E+00  0.95890383E+00 -0.39517820E-01  0.95971778E+00
  0.10000000E+00  0.43300964E-01 -0.19724609E+00 -0.14466535E+01  0.14600384E+01 -0.86751390E-01  0.27533637E-01  0.91015960E-01  0.00000000E+00  0.00000000E+00  0.00000000E+00  0.60963640E+00  0.27131154E+00  0.66728292E+00  0.95932069E+00 -0.38006061E-01  0.96007325E+00
  0.10000000E+00  0.64837254E-01 -0.20273034E+00 -0.14521474E+01  0.14662304E+01 -0.13047539E+00  0.41704841E-01  0.13697854E+00  0.00000000E+00  0.00000000E+00  0.00000000E+00  0.61127778E+00  0.27108682E+00  0.66869170E+00  0.95825675E+00 -0.35670401E-01  0.95892042E+00
  0.10000000E+00  0.86297773E-01 -0.20979059E+00 -0.14597157E+01  0.14747142E+01 -0.17623491E+00  0.61025285E-01  0.18650156E+00  0.00000000E+00  0.00000000E+00  0.00000000E+00  0.61312541E+00  0.27065380E+00  0.67020612E+00  0.95712366E+00 -0.32041001E-01  0.95765982E+00
  0.10000000E+00  0.10768279E+00 -0.21929946E+00 -0.14685943E+01  0.14848776E+01 -0.22080749E+00  0.73453153E-01  0.23270435E+00  0.00000000E+00  0.00000000E+00  0.00000000E+00  0.61557430E+00  0.26914686E+00  0.67184206E+00  0.95492684E+00 -0.27009145E-01  0.95530873E+00
  0.10000000E+00  0.12899256E+00 -0.23042875E+00 -0.14792199E+01  0.14970601E+01 -0.26830492E+00  0.91915012E-01  0.28361223E+00  0.00000000E+00  0.00000000E+00  0.00000000E+00  0.61835582E+00  0.26720594E+00  0.67361928E+00  0.95359136E+00 -0.19829666E-01  0.95379752E+00
  0.10000000E+00  0.15022736E+00 -0.24451781E+00 -0.14914092E+01  0.15113208E+01 -0.31502850E+00  0.10293510E+00  0.33141906E+00  0.00000000E+00  0.00000000E+00  0.00000000E+00  0.62206272E+00  0.26448475E+00  0.67595430E+00  0.95127067E+00 -0.10471698E-01  0.95132831E+00
  0.10000000E+00  0.17138746E+00 -0.25920802E+00 -0.15074711E+01  0.15295940E+01 -0.36530904E+00  0.12055778E+00  0.38468802E+00  0.00000000E+00  0.00000000E+00  0.00000000E+00  0.62482473E+00  0.26369701E+00  0.67819028E+00  0.95085052E+00  0.19258767E-02  0.95085247E+00
  0.10000000E+00  0.19247310E+00 -0.27767003E+00 -0.15269973E+01  0.15520378E+01 -0.41508690E+00  0.13065854E+00  0.43516525E+00  0.00000000E+00  0.00000000E+00  0.00000000E+00  0.62828512E+00  0.26422978E+00  0.68158607E+00  0.94956033E+00  0.17037109E-01  0.94971316E+00
  0.10000000E+00  0.21348456E+00 -0.29932348E+00 -0.15514502E+01  0.15800608E+01 -0.46858782E+00  0.14868557E+00  0.49161158E+00  0.00000000E+00  0.00000000E+00  0.00000000E+00  0.63313768E+00  0.26792064E+00  0.68749167E+00  0.95117031E+00  0.35567789E-01  0.95183508E+00
  0.10000000E+00  0.23442209E+00 -0.32595830E+00 -0.15808072E+01  0.16140632E+01 -0.52110197E+00  0.16033246E+00  0.54520983E+00  0.00000000E+00  0.00000000E+00  0.00000000E+00  0.64117020E+00  0.27341478E+00  0.69703290E+00  0.95169472E+00  0.56531623E-01  0.95337226E+00
  0.10000000E+00  0.25528596E+00 -0.34965608E+00 -0.16203132E+01  0.16576110E+01 -0.57691906E+00  0.18178839E+00  0.60488232E+00  0.00000000E+00  0.00000000E+00  0.00000000E+00  0.64892226E+00  0.28452281E+00  0.70855721E+00  0.95568045E+00  0.80318021E-01  0.95904959E+00
  0.10000000E+00  0.27607642E+00 -0.36853319E+00 -0.16719652E+01  0.17120994E+01 -0.63140255E+00  0.19766936E+00  0.66162101E+00  0.00000000E+00  0.00000000E+00  0.00000000E+00  0.65844933E+00  0.29875265E+00  0.72305510E+00  0.95785004E+00  0.10547213E+00  0.96363949E+00
  0.10000000E+00  0.29679374E+00 -0.37249395E+00 -0.17420307E+01  0.17814103E+01 -0.68948782E+00  0.22420814E+00  0.72502603E+00  0.00000000E+00  0.00000000E+00  0.00000000E+00  0.67055777E+00  0.31655511E+00  0.74152198E+00  0.96347276E+00  0.13243958E+00  0.97253278E+00
  0.10000000E+00  0.31743817E+00 -0.36108404E+00 -0.18293674E+01  0.18646627E+01 -0.74715393E+00  0.24486131E+00  0.78625445E+00  0.00000000E+00  0.00000000E+00  0.00000000E+00  0.68981354E+00  0.33227421E+00  0.76566891E+00  0.96591637E+00  0.15970878E+00  0.97903081E+00
  0.10000000E+00  0.33800996E+00 -0.32819669E+00 -0.19379846E+01  0.19655782E+01 -0.81040386E+00  0.27569114E+00  0.85601403E+00  0.00000000E+00  0.00000000E+00  0.00000000E+00  0.71090326E+00  0.35034284E+00  0.79254246E+00  0.97143065E+00  0.18812688E+00  0.98947928E+00
  0.10000000E+00  0.35850938E+00 -0.30753931E+00 -0.20395244E+01  0.20625810E+01 -0.87577613E+00  0.29998774E+00  0.92573024E+00  0.00000000E+00  0.00000000E+00  0.00000000E+00  0.72554240E+00  0.37542431E+00  0.81691810E+00  0.97252279E+00  0.21632652E+00  0.99629200E+00
  0.10000000E+00  0.37893667E+00 -0.37046458E+00 -0.20782596E+01  0.21110203E+01 -0.94735924E+00  0.33733700E+00  0.10056271E+01  0.00000000E+00  0.00000000E+00  0.00000000E+00  0.71638244E+00  0.42330108E+00  0.83209831E+00  0.97707716E+00  0.24529179E+00  0.10073966E+01
  0.10000000E+00  0.39929210E+00 -0.68211774E+00 -0.19093102E+01  0.20274984E+01 -0.10139785E+01  0.37823467E+00  0.10822264E+01  0.00000000E+00  0.00000000E+00  0.00000000E+00  0.65994201E+00  0.51250631E+00  0.83557535E+00  0.97761748E+00  0.27271757E+00  0.10149438E+01
  0.10000000E+00  0.41957591E+00 -0.14398250E+01 -0.13534428E+01  0.19760829E+01 -0.10618875E+01  0.45405480E+00  0.11548900E+01  0.00000000E+00  0.00000000E+00  0.00000000E+00  0.51847253E+00  0.67981851E+00  0.85496607E+00  0.98505744E+00  0.29729123E+00  0.10289413E+01
  0.10000000E+00  0.43978835E+00 -0.28824159E+01 -0.18745794E+00  0.28885051E+01 -0.10532648E+01  0.56784789E+00  0.11965859E+01  0.00000000E+00  0.00000000E+00  0.00000000E+00  0.26145246E+00  0.94966130E+00  0.98499441E+00  0.99076515E+00  0.31418158E+00  0.10393872E+01
  0.10000000E+00  0.45992968E+00 -0.50260034E+01  0.16006076E+01  0.52747184E+01 -0.94575569E+00  0.75910800E+00  0.12127237E+01  0.00000000E+00  0.00000000E+00  0.00000000E+00 -0.11780569E+00  0.12963918E+01  0.13017334E+01  0.10044136E+01  0.32094132E+00  0.10544430E+01
  0.10000000E+00  0.48000015E+00 -0.74340739E+01  0.34337702E+01  0.81887870E+01 -0.70033291E+00  0.10198718E+01  0.12371760E+01  0.00000000E+00  0.00000000E+00  0.00000000E+00 -0.61814132E+00  0.15176119E+01  0.16386716E+01  0.10157525E+01  0.31341805E+00  0.10630071E+01
  0.10000000E+00  0.50000000E+00 -0.80921398E+01  0.36898404E+01  0.88936859E+01 -0.35926991E+00  0.13295918E+01  0.13772760E+01  0.00000000E+00  0.00000000E+00  0.00000000E+00 -0.71827973E+00  0.10699082E+01  0.12886541E+01  0.10285139E+01  0.30323969E+00  0.10722850E+01
  0.10000000E+00  0.51999989E+00 -0.54478981E+01  0.25706161E+01  0.60239241E+01 -0.86637215E-01  0.15502380E+01  0.15526571E+01  0.00000000E+00  0.00000000E+00  0.00000000E+00 -0.44672872E-01  0.55650289E+00  0.55829305E+00  0.10225265E+01  0.30091028E+00  0.10658834E+01
  0.10000000E+00  0.54226011E+00 -0.22340454E+01  0.14796866E+01  0.26796326E+01  0.39793802E-01  0.15903434E+01  0.15908411E+01  0.00000000E+00  0.00000000E+00  0.00000000E+00  0.43052762E+00  0.38299803E+00  0.57623044E+00  0.99465165E+00  0.31043450E+00  0.10419700E+01
  0.10000000E+00  0.56703610E+00  0.80966729E-01  0.63475263E+00  0.63989570E+00  0.10416750E+00  0.14600105E+01  0.14637218E+01  0.00000000E+00  0.00000000E+00  0.00000000E+00  0.63834622E+00  0.30540000E+00  0.70764049E+00  0.93400815E+00  0.31850783E+00  0.98682241E+00
  0.10000000E+00  0.59461219E+00  0.10941908E+01  0.79449380E-01  0.10970715E+01  0.13042900E+00  0.12857290E+01  0.12923277E+01  0.00000000E+00  0.00000000E+00  0.00000000E+00  0.66261127E+00  0.24141176E+00  0.70521864E+00  0.86647719E+00  0.32346764E+00  0.92488596E+00
  0.10000000E+00  0.62530483E+00  0.13182806E+01 -0.69830901E-01  0.13201289E+01  0.16484040E+00  0.11458629E+01  0.11576589E+01  0.00000000E+00  0.00000000E+00  0.00000000E+00  0.61535119E+00  0.23414069E+00  0.65839118E+00  0.79274204E+00  0.32620523E+00  0.85723380E+00
  0.10000000E+00  0.65946626E+00  0.12014449E+01 -0.63501791E-01  0.12031219E+01  0.16689959E+00  0.10348559E+01  0.10482281E+01  0.00000000E+00  0.00000000E+00  0.00000000E+00  0.55383112E+00  0.23504604E+00  0.60164404E+00  0.72585374E+00  0.33382674E+00  0.79893926E+00
  0.10000000E+00  0.69748849E+00  0.10010843E+01  0.81299624E-02  0.10011173E+01  0.16260736E+00  0.96470709E+00  0.97831535E+00  0.00000000E+00  0.00000000E+00  0.00000000E+00  0.48387040E+00  0.24159146E+00  0.54082992E+00  0.65247817E+00  0.34260222E+00  0.73695593E+00
  0.10000000E+00  0.73980787E+00  0.86252153E+00  0.77488405E-01  0.86599529E+00  0.13587478E+00  0.89755007E+00  0.90777645E+00  0.00000000E+00  0.00000000E+00  0.00000000E+00  0.42642800E+00  0.25082783E+00  0.49472764E+00  0.58090083E+00  0.35444022E+00  0.68049515E+00
  0.10000000E+00  0.78691004E+00  0.76158717E+00  0.13394102E+00  0.77327564E+00  0.10543435E+00  0.84699178E+00  0.85352884E+00  0.00000000E+00  0.00000000E+00  0.00000000E+00  0.36773301E+00  0.25757379E+00  0.44896750E+00  0.50037836E+00  0.36293619E+00  0.61814333E+00
  0.10000000E+00  0.83933554E+00  0.67988290E+00  0.18340377E+00  0.70418584E+00  0.51689333E-01  0.78679943E+00  0.78849548E+00  0.00000000E+00  0.00000000E+00  0.00000000E+00  0.31118230E+00  0.26344031E+00  0.40771953E+00  0.42060928E+00  0.37035823E+00  0.56042607E+00
  0.10000000E+00  0.89768599E+00  0.58396840E+00  0.22862462E+00  0.62712703E+00 -0.90380514E-02  0.73323344E+00  0.73328914E+00  0.00000000E+00  0.00000000E+00  0.00000000E+00  0.24845015E+00  0.26361685E+00  0.36224483E+00  0.33321320E+00  0.36922755E+00  0.49735302E+00
  0.10000000E+00  0.96263101E+00  0.48564136E+00  0.26624003E+00  0.55383327E+00 -0.86148823E-01  0.65688042E+00  0.66250547E+00  0.00000000E+00  0.00000000E+00  0.00000000E+00  0.18732300E+00  0.25933253E+00  0.31991134E+00  0.24847991E+00  0.36174537E+00  0.43886441E+00
  0.10000000E+00  0.10349159E+01  0.37595916E+00  0.29040360E+00  0.47505741E+00 -0.15876438E+00  0.57528673E+00  0.59679222E+00  0.00000000E+00  0.00000000E+00  0.00000000E+00  0.12394881E+00  0.24517866E+00  0.27472875E+00  0.16153107E+00  0.33997041E+00  0.37639363E+00
  0.10000000E+00  0.11153702E+01  0.27127070E+00  0.29855366E+00  0.40338825E+00 -0.22595282E+00  0.46437589E+00  0.51642971E+00  0.00000000E+00  0.00000000E+00  0.00000000E+00  0.67075082E-01  0.22361009E+00  0.23345351E+00  0.83944963E-01  0.30815314E+00  0.31938240E+00