Title = "Nombre d'onde, PSE linéaire - Jet compressible - Rans Francisco n = 0, st =  1.1000"
Variables = x, Re(alpha), Im(alpha), abs(alpha), Re(int(alpha)), Im(int(alpha)), C<sub>ph</sub>, sigma, N
Zone T = "_FrancSt1_0Case_5 nombre d'onde PSE",I = 201, F = point
   0.0000000000000000        11.816501106802683       -2.7648625102265343        12.135656682171147        0.0000000000000000        0.0000000000000000       0.58490273689549588        2.7648625102265343        0.0000000000000000     
  0.10000000000000001        10.718532667571086       -2.9872336438212690        11.127017003157954        1.1267516887186886      -0.28760480770239022       0.64481809705243487        3.8845269185933127       0.25787709323839975     
  0.20000000000000001        11.218917741960258       -2.5783269158284492        11.511380672436999        2.2236242091952558      -0.56588283568487618       0.61605798320880756        4.3165976207747487       0.57378675032786930     
  0.29999999999999999        11.298617937455600       -2.2905408502666211        11.528458035805723        3.3495009931660484      -0.80932622398962961       0.61171232412289067        3.8493329824349707       0.89616745931883623     
  0.40000000000000002        11.232162333640879       -1.7726905134645434        11.371187376250033        4.4760400067208730       -1.0124877921761879       0.61533154815589264        3.2584976400348378        1.1797920486093862     
  0.50000000000000000        11.232880220405049       -1.4106608847786812        11.321111349059841        5.5992921344231696       -1.1716553620883490       0.61529222267878170        2.4465088523071374        1.4154042926275043     
  0.59999999999999998        11.091460100419580       -1.0223961911116068        11.138481994006142        6.7155091504644009       -1.2933082158828633       0.62313742062112176        2.4255463424742554        1.5928324892705117     
  0.69999999999999996        10.761150852733079       -1.0331066381711098        10.810627965160538        7.8081396981220337       -1.3960833573469991       0.64226437603950015        1.6849364534495825        1.7588743367066384     
  0.80000000000000004        10.425223257475716      -0.79062555725775052        10.455159909824513        8.8674584036324742       -1.4872699671184422       0.66295979157486595        1.4642806342416670        1.8865019828073941     
  0.90000000000000002        10.186062942357031      -0.61327809878889550        10.204508233722647        9.8980227136241119       -1.5574651499207746       0.67852553798359305       0.94990179119081575        1.9947890802963579     
   1.0000000000000000        10.034963029188324      -0.48960741227049775        10.046899940545179        10.909074012201380       -1.6126094254737442       0.68874233196418477       0.26197953058206824        2.0705076738285673     
   1.1000000000000001        10.012299841853919      -0.43119607916836716        10.021580622929608        11.911437155753493       -1.6586496000456874       0.69030132407798361      -0.33147686473885030        2.1060480545505844     
   1.2000000000000000        9.6645877402270344      -0.33648672118812756        9.6704436042036175        12.895281534857538       -1.6970337400635120       0.71513695396749377       0.27055768462190483        2.1062131424399406     
   1.3000000000000000        9.5246093185831224      -0.39861828753443984        9.5329470370288618        13.854741387798047       -1.7337889904996404       0.72564696427104458      -5.20605482715250575E-002   2.1355444076609360     
   1.3999999999999999        9.3728298590730486      -0.29538100800825912        9.3774831115296209        14.799613346680854       -1.7684889552767753       0.73739777013098129      -0.43950622490323099        2.1502503676899885     
   1.5000000000000000        9.3190322041540821      -0.22572508373745120        9.3217655535573929        15.734206449842212       -1.7945442598640609       0.74165467899302373       0.30192854788344992        2.1421900382554870     
   1.6000000000000001        9.3383144807565586      -0.21890432554713474        9.3408798539137035        16.667073784087744       -1.8167757303282901       0.74012326872692757      -0.24985552142073383        2.1679986953263688     
   1.7000000000000000        9.2678900389990080      -0.13657031950905132        9.2688962248558937        17.597384010075523       -1.8345494625810994       0.74574728539226742      -5.22634894883426682E-002   2.1623087697988002     
   1.8000000000000000        8.9756491348900713      -0.14329542612878840        8.9767929112686069        18.509560968769978       -1.8485427498629914       0.77002829923812455       0.36784080296217680        2.1632071877236196     
   1.8999999999999999        8.9037615888809825      -0.14326774446234636        8.9049141533332996        19.403531504958529       -1.8628709083925481       0.77624538448206337        1.4825987745641247        2.1862542386496613     
   2.0000000000000000        8.9103931178829345      -9.68723702678331716E-002   8.9109196927891166        20.294239240296726       -1.8748779141290570       0.77566766656190866        1.4829315952327766        2.2650603284134916     
   2.1000000000000001        8.9668589128887888      -7.63682765563349075E-002   8.9671841108185859        21.188101841835312       -1.8835399464702653       0.77078315885656290        1.3923297634815253        2.3418332762196399     
   2.2000000000000002        8.9868858993577909      -7.26326483841971265E-002   8.9871794056693446        22.085789082447643       -1.8909899927172920       0.76906549335309204        1.2329080227451301        2.4115886810435372     
   2.2999999999999998        8.8032227526592912      -1.15986629916662413E-002   8.8032303935499403        22.975294515048496       -1.8952015582860851       0.78511063869305231        1.0670087916546789        2.4701527146693656     
   2.3999999999999999        8.6724089592420803      -2.79834761253153243E-002   8.6724541066112515        23.849076100643565       -1.8971806652419341       0.79695317303181845       0.78109271161450100        2.5190420493372767     
   2.5000000000000000        8.6771726286568800      -1.62312128856329334E-002   8.6771878094105972        24.716555180038515       -1.8993913996924814       0.79651565477352526       0.71737158713363980        2.5544059467519302     
   2.6000000000000001        8.7597047138933668      -1.35336290953453602E-002   8.7597151685270092        25.588399047166028       -1.9008796417915304       0.78901105272824157       0.67108250468702857        2.5861756926640558     
   2.7000000000000002        8.8019491804676182      -1.34693636254607004E-002   8.8019594863468349        26.466481741884078       -1.9022297914275708       0.78522423797161267       0.60195524285540469        2.6144813818822410     
   2.7999999999999998        8.7109187159310242       1.55138931732766733E-002   8.7109325308165939        27.342125136704006       -1.9021275649501799       0.79342995420877871       0.55262189298302655        2.6371534192180488     
   2.8999999999999999        8.6098463907023124       1.56678403017101488E-002   8.6098606465325176        28.208163392035672       -1.9005684782764305       0.80274415178431180       0.43592737056750869        2.6561331834094450     
   3.0000000000000000        8.6176471606020151       7.54270211533302013E-003   8.6176504615229774        29.069538069600888       -1.8994079511555784       0.80201750072750932       0.35995456337764037        2.6698633159886631     
   3.1000000000000001        8.6841759599478969      -2.32873070260386592E-003   8.6841762721817002        29.934629225628385       -1.8991472525849420       0.79587330677935886       0.29951202611669309        2.6802769440831127     
   3.2000000000000002        8.7136540054670064      -8.39906269868133729E-003   8.7136580533806480        30.804520723899131       -1.8996836422550063       0.79318088984956492       0.24337425727505266        2.6874199973764936     
   3.2999999999999998        8.6834697968476249      -4.51726751881570063E-003   8.6834709718217393        31.674376914014861       -1.9003294587658812       0.79593802933553603       0.19844702371797868        2.6909508709568235     
   3.3999999999999999        8.6588843410950371      -7.50376212569980276E-003   8.6588875924628379        32.541494620911998       -1.9009305102481069       0.79819796242058239       0.11154105968008798        2.6917238428468617     
   3.5000000000000000        8.6827823382816636      -1.53595028222904151E-002   8.6827959234513248        33.408577954880833       -1.9020736734955064       0.79600104766248736       2.75111090655752524E-002   2.6882680275081761     
   3.6000000000000001        8.7376884656858174      -2.24920572206909787E-002   8.7377174145206258        34.279601495079206       -1.9039662514976554       0.79099911435845238      -4.16434925717221321E-002   2.6806594589285657     
   3.7000000000000002        8.7634379366480211      -1.87212944217412212E-002   8.7634579337352072        35.154657815195897       -1.9060269190797769       0.78867493418241374      -0.10691611500741999        2.6685685640734214     
   3.7999999999999998        8.7739927803210183      -1.71439060547244199E-002   8.7740095294363663        36.031529351044348       -1.9078201791036002       0.78772618247409487      -0.18025731105342449        2.6519113393861935     
   3.8999999999999999        8.7975156958892047      -1.48087495487474168E-002   8.7975281595730124        36.910104774854858       -1.9094178118837739       0.78561994963272064      -0.24931300722993704        2.6304928656750377     
   4.0000000000000000        8.8366407970920449      -1.09421617792019796E-002   8.8366475717738080        37.791812599503920       -1.9107053574501713       0.78214153959635635      -0.31204553419769637        2.6043063924081782     
   4.0999999999999996        8.8693473570598531      -6.52503366658107112E-003   8.8693497572397586        38.677112007211512       -1.9115787172224605       0.77925731845377588      -0.37580144743982458        2.5733363905918796     
   4.2000000000000002        8.8980874034158877      -2.51911385923461826E-003   8.8980877600056925        39.565483745235305       -1.9120309245987512       0.77674038527024225      -0.42583676937678056        2.5375698244799434     
   4.2999999999999998        8.9282936863094857       1.14012688225294864E-003   8.9282937591055518        40.456802799721572       -1.9120998739476003       0.77411251026560024      -0.45987356490228543        2.4978045501289650     
   4.4000000000000004        8.9572718288999926       4.54414819439375936E-003   8.9572729815546115        41.351081075482050       -1.9118156601937679       0.77160813804914086      -0.47238375085464868        2.4549880046038774     
   4.5000000000000000        8.9865400154676180       6.14659028693472290E-003   8.9865421175317977        42.248271667700429       -1.9112811232697016       0.76909509399629628      -0.45668005620775720        2.4104316373667478     
   4.5999999999999996        9.0148120896714001       6.79936189934708321E-003   9.0148146538577194        43.148339272957379       -1.9106338256603874       0.76668307327407392       0.12549372202069814        2.3660081097448846     
   4.7000000000000002        9.0424234038377502       7.60589073651523565E-003   9.0424266026242410        44.051201047632844       -1.9099135630285944       0.76434198325243119      -3.75943422660689336E-002   2.3503002954855550     
   4.7999999999999998        9.0657622536437401       7.29052911432740303E-003   9.0657651851019398        44.956610330506919       -1.9091687420360524       0.76237426534317643      -0.20603134835147388        2.3265046973877244     
   4.9000000000000004        9.0932498253221894       7.05794301717294417E-003   9.0932525644172912        45.864560934455220       -1.9084513184294774       0.76006971882053831      -0.36561884843846393        2.2947857329902743     
   5.0000000000000000        9.1223958735334865       7.56628101508838042E-003   9.1223990113384748        46.775343219398003       -1.9077201072278642       0.75764129661919954      -2.51904033859968006E-002   2.2555834558105836     
   5.0999999999999996        9.1495403725604678       7.82288081577042251E-003   9.1495437168515785        47.688940031702700       -1.9069506491363213       0.75539355601131519       3.40487018533902064E-002   2.2340531253281473     
   5.2000000000000002        9.1805111015643703       8.35685955707744788E-003   9.1805149051155244        48.605442605408946       -1.9061416621176790       0.75284521323870701       6.37615465403423703E-002   2.2161967220019312     
   5.2999999999999998        9.2085446192081442       9.58087538168003218E-003   9.2085496033371257        49.524895391447572       -1.9052447753707411       0.75055333103135635       6.52810209030295768E-002   2.2003266726215744     
   5.4000000000000004        9.2354198624616792       1.07562712678505260E-002   9.2354261262447057        50.447093615531067       -1.9042279180382646       0.74836920690417863       4.89511527922589715E-002   2.1848787421875615     
   5.5000000000000000        9.2676806468504100       1.17093889800992858E-002   9.2676880440483060        51.372248640996666       -1.9031046350258671       0.74576413465934399       2.01876476576408788E-002   2.1688647444171201     
   5.5999999999999996        9.3006271661082387       1.27633789012254108E-002   9.3006359237845420        52.300664031644594       -1.9018809966318009       0.74312234158608903      -3.20767857552375774E-002   2.1513386772580407     
   5.7000000000000002        9.3299616633774143       1.36663599091064198E-002   9.3299716724910482        53.232193473118883       -1.9005595096912842       0.74078587750548219      -7.93068225422402656E-002   2.1312268784204149     
   5.7999999999999998        9.3657964388194088       1.44749249853830045E-002   9.3658076243779238        54.166981378228719       -1.8991524454465598       0.73795153279764902      -0.13112871050214306        2.1089035893449775     
   5.9000000000000004        9.4020356558426474       1.58927404377515041E-002   9.4020490879879528        55.105372982961825       -1.8976340621754031       0.73510717156263639      -0.18505424357451150        2.0839660292028901     
   6.0000000000000000        9.4364888074373248       1.77861627683274896E-002   9.4365055693554236        56.047299206125821       -1.8959501170150992       0.73242325391731256      -0.24844414713005100        2.0564177582470968     
   6.0999999999999996        9.4704241648458840       2.04278429228557032E-002   9.4704461963976829        56.992644854739979       -1.8940394167305401       0.72979876271571620      -0.31711865239578252        2.0260883472485949     
   6.2000000000000002        9.5076490910219285       2.40944514241408572E-002   9.5076796212640406        57.941548517533377       -1.8918133020131902       0.72694141019824532      -0.38900604911363240        1.9930811620134798     
   6.2999999999999998        9.5429643480809148       2.91603045984639500E-002   9.5430089003472940        58.894079189488515       -1.8891505642120601       0.72425124791411855      -0.46082281799707409        1.9570807043560270     
   6.4000000000000004        9.5734928405575221       3.51898690775145281E-002   9.5735575151085719        59.849902048920441       -1.8859330555282612       0.72194171479581404      -0.52340503640919434        1.9183931123211022     
   6.5000000000000000        9.6054272331366839       4.22120277383479445E-002   9.6055199852152526        60.808848052605150       -1.8820629606874681       0.71954153315058444      -0.55661117980051711        1.8777027252703817     
   6.5999999999999996        9.6390300184214706       5.00151943148134243E-002   9.6391597774750348        61.771070915183053       -1.8774515995848100       0.71703312726371238      -0.54376110334595185        1.8361894044122349     
   6.7000000000000002        9.6725981115370452       5.77257166293734872E-002   9.6727703625006214        62.736652321680985       -1.8720645540376006       0.71454471262005714      -0.46289957394179393        1.7961456060033736     
   6.7999999999999998        9.7151294794344381       6.44636492195586053E-002   9.7153433477282078        63.706038701229559       -1.8659550857451541       0.71141654391001441      -0.30156512771229960        1.7612498705916102     
   6.9000000000000004        9.7630817305356672       6.97217406587772592E-002   9.7633306815983563        64.679949261728069       -1.8592458162512373       0.70792235778183277      -9.98678833526972787E-002   1.7348408232663781     
   7.0000000000000000        9.8093681280012515       7.28391517202546385E-002   9.8096385566783297        65.658571754654915       -1.8521177716322856       0.70458196162180609       8.53485396233759908E-002   1.7190123871182947     
   7.0999999999999996        9.8605647013399214       7.36293514298710788E-002   9.8608395946137790        66.642068396121971       -1.8447943464747794       0.70092373482001114       0.20717180746647079        1.7132131658629823     
   7.2000000000000002        9.9177276845894280       7.23561531643397149E-002   9.9179916232356398        67.630983015418437       -1.8374950712450688       0.69688380823733687       0.25324575808674943        1.7138657678718956     
   7.2999999999999998        9.9768356514618688       6.93455559662769228E-002   9.9770766471152683        68.625711182220996       -1.8304099857885381       0.69275510586213063       0.23430597812771581        1.7172223084109126     
   7.4000000000000004        10.041995411550538       6.50146414168451120E-002   10.042205870684020        69.626652735371621       -1.8236919759193819       0.68826000756261774       0.17296630791860590        1.7202415078936835     
   7.5000000000000000        10.113187795103146       6.01999552705174829E-002   10.113366967219068        70.634411895704304       -1.8174312460850137       0.68341496053738160       9.35026421323636170E-002   1.7205333452449449     
   7.5999999999999996        10.187376627745021       5.56131515953040556E-002   10.187528423428121        71.649440116846705       -1.8116405907417226       0.67843804057212020       2.71687596367673053E-003   1.7170498944215926     
   7.7000000000000002        10.265555124437300       5.15748256635273974E-002   10.265684681281767        72.672086704455822       -1.8062811918787809       0.67327131890262926      -9.39136212434359130E-002   1.7094644470296649     
   7.7999999999999998        10.351894027201334       4.84716447930643515E-002   10.352007508244746        73.702959162037743       -1.8012788683559513       0.66765596901749691      -0.18739437106244403        1.6977452378113294     
   7.9000000000000004        10.444164595186974       4.68672091642700281E-002   10.444269750760554        74.742762093157168       -1.7965119256580846       0.66175746034130878      -0.27681528100033753        1.6814486380143159     
   8.0000000000000000        10.535188387566608       4.67973514449276581E-002   10.535292324070584        75.791729742294848       -1.7918286976276248       0.65603989066340251      -0.36790933410328408        1.6611886564910883     
   8.0999999999999996        10.636479395042095       4.81503760194974262E-002   10.636588380672906        76.850313131425281       -1.7870813112544035       0.64979243424465760      -0.45516339043184051        1.6372024917620465     
   8.1999999999999993        10.740020273146643       5.09783574099607756E-002   10.740141258872022        77.919138114834709       -1.7821248745829306       0.64352800666293275      -0.53192104665989204        1.6087564961148102     
   8.3000000000000007        10.837297971246032       5.47728927763266801E-002   10.837436384466415        78.998004027054364       -1.7768373120736161       0.63775157389189019      -0.60355132767515818        1.5767966864363530     
   8.4000000000000004        10.943269652501185       5.88791133359826621E-002   10.943428047798397        80.087032408241726       -1.7711547117680007       0.63157575910759522       5.85981447253957136E-003   1.5421134075313339     
   8.5000000000000000        11.050557116095936       6.34454861580307922E-002   11.050739247028334        81.186723746671575       -1.7650384817933000       0.62544392697002038      -6.75860487946390726E-002   1.5377094166851644     
   8.5999999999999996        11.150456361516399       6.77404358689850522E-002   11.150662125485340        82.296774420552183       -1.7584791856919493       0.61984044543246120      -0.13523253969206464        1.5299363744833252     
   8.6999999999999993        11.257998863810633       7.12881104780534874E-002   11.258224567499843        83.417197181818537       -1.7515277583745974       0.61391939380229466      -0.19628823408747273        1.5195539158838849     
   8.8000000000000007        11.369364745566859       7.42070549097694765E-002   11.369606915137258        84.548565362287434       -1.7442530001052061       0.60790589382687177      -0.25694942230812778        1.5059261898934022     
   8.9000000000000004        11.473668273480060       7.60927874244686775E-002   11.473920592463630        85.690717013239777       -1.7367380079884942       0.60237961157310227      -0.31169775198618799        1.4894484621385438     
   9.0000000000000000        11.585039167682694       7.66863746253475254E-002   11.585292975009105        86.843652385297915       -1.7290990498860035       0.59658873292182613      -0.35455969826159411        1.4708668494902215     
   9.0999999999999996        11.700342563588929       7.63973337164849803E-002   11.700591978952593        88.007921471861494       -1.7214448644689120       0.59070952840354540      -0.39639673975309669        1.4499806602632115     
   9.1999999999999993        11.809166222819044       7.51098449195346934E-002   11.809405080992608        89.183396911181887       -1.7138695055371109       0.58526603042832392      -0.41609499027552482        1.4269885705048078     
   9.3000000000000007        11.920124810897834       7.29583820005073463E-002   11.920348083545473        90.369861462867746       -1.7064660941911087       0.57981807636601124      -0.41342670214946359        1.4034033628330078     
   9.4000000000000004        12.037927465289851       7.02406031135071746E-002   12.038132388452350        91.567764076677122       -1.6993061449354081       0.57414400093588946      -0.38981614264561903        1.3802418014601476     
   9.5000000000000000        12.155117185910932       6.73923754397880992E-002   12.155304008353502        92.777416309237154       -1.6924244960077435       0.56860857301389989      -2.41001059828817726E-002   1.3579453509894936     
   9.5999999999999996        12.267622564794666       6.44370480687541380E-002   12.267791794998114        93.998553296772428       -1.6858330248323163       0.56339390956908120      -7.05128301693238868E-002   1.3542183195016764     
   9.6999999999999993        12.389955808277668       6.14626934642005379E-002   12.390108255933900        95.231432215426040       -1.6795380377556686       0.55783119365768885      -0.11926433788961796        1.3487906970810482     
   9.8000000000000007        12.513680906828954       5.91789481962122915E-002   12.513820838810389        96.476614051181386       -1.6735059556726479       0.55231581253808437      -0.17271962359654161        1.3404301044716820     
   9.9000000000000004        12.630076229107731       5.73833342719907505E-002   12.630206585805489        97.733801907978219       -1.6676778415492377       0.54722582132711473      -0.22752055714188957        1.3296757904922916     
   10.000000000000000        12.756652955541533       5.60640960568659016E-002   12.756776152735188        99.003138367210681       -1.6620054700327949       0.54179602298384744      -1.18285727568251051E-002   1.3168153597110586     
   10.100000000000000        12.881691519404413       5.56741622520527182E-002   12.881811829608367        100.28505559095797       -1.6564185571173489       0.53653697788728760       1.46915482252826437E-002   1.3144754155365908     
   10.199999999999999        13.011090058550222       5.60630993100301109E-002   13.011210842300907        101.57969466985570       -1.6508316940392447       0.53120098368358148       1.84286927160375175E-002   1.3131668783726085     
   10.300000000000001        13.121484436889107       5.65318285757017563E-002   13.121606215519698        102.88632339462768       -1.6452019476449580       0.52673185500772135       2.39344767620044210E-002   1.3134521214985628     
   10.400000000000000        13.266169241645679       5.81991575877667602E-002   13.266296901921418        104.20570607855441       -1.6394653983367846       0.52098716004622359      -9.90543368356597634E-003   1.3124286884230727     
   10.500000000000000        13.365251970828547       5.98750109389047241E-002   13.365386087228131        105.53727713917812       -1.6335616899104510       0.51712484381011514      -2.53125094548807585E-002   1.3105657883322763     
   10.600000000000000        13.508388873849745       6.11604644690566662E-002   13.508527327934813        106.88095918141202       -1.6275099161400530       0.51164531184597462      -4.28444598062687129E-002   1.3096457380936357     
   10.699999999999999        13.650810700103479       6.37964648752828573E-002   13.650959774279251        108.23891916010967       -1.6212620696728361       0.50630720692985320      -9.50720758723815479E-002   1.3058249881242148     
   10.800000000000001        13.739683970059229       6.66730774549850747E-002   13.739845737720634        109.60844389361783       -1.6147385925563227       0.50303222788520596      -0.14293357256630407        1.2982732921881870     
   10.900000000000000        13.843085651520861       6.76302866416820386E-002   13.843250854153224        110.98758237469683       -1.6080234243514893       0.49927480128956786      -0.14439363313203282        1.2920532000671023     
   11.000000000000000        14.036372061984197       6.82122044353477147E-002   14.036537805573156        112.38155526037208       -1.6012312997976379       0.49239958925116495      -0.16347150293272941        1.2868162144796189     
   11.100000000000000        14.186886427420854       7.08909631231356280E-002   14.187063545117100        113.79271818484233       -1.5942761414197137       0.48717552461255886      -0.23633168539207125        1.2761155567609366     
   11.199999999999999        14.269005964713541       7.23081405032793140E-002   14.269189174168714        115.21551280444905       -1.5871161862383931       0.48437178139733844      -0.27060913863547964        1.2624555966159896     
   11.300000000000001        14.365915656205333       7.27280972520677749E-002   14.366099749665370        116.64725888549501       -1.5798643743506258       0.48110430294167383      -0.29717649563202431        1.2481617158895002     
   11.400000000000000        14.456394974322333       7.32300655886948260E-002   14.456580449612492        118.08837441702138       -1.5725664662085876       0.47809317953569086      -0.33652546693073615        1.2316423758275701     
   11.500000000000000        14.543811737800118       7.25272813267742178E-002   14.543992576700152        119.53838475262751       -1.5652785988628142       0.47521956159087170      -0.35329415706763267        1.2144362718491089     
   11.600000000000000        14.692683727071564       7.01692503827946595E-002   14.692851283105428        121.00020952587109       -1.5581437722773357       0.47040445205820103      -0.34581121934994036        1.1990800037981140     
   11.699999999999999        14.899125239747217       6.79744682883486884E-002   14.899280299330288        122.47979997421201       -1.5512365863437785       0.46388655217551605      -0.35345381008739596        1.1838074247021038     
   11.800000000000001        15.080215599236762       6.69436745611224210E-002   15.080364185755844        123.97876701616123       -1.5444906792013049       0.45831598311149807      -0.38472166051796314        1.1656011385514256     
   11.900000000000000        15.192990772140805       6.60791978808766556E-002   15.193134471291572        125.49242733473010       -1.5378395355792049       0.45491397589545590      -0.41279466400263232        1.1445405654979353     
   12.000000000000000        15.266030597168013       6.46053662396751660E-002   15.266167300505289        127.01537840319553       -1.5313053073731773       0.45273745482861094      -0.42336423086986597        1.1222475643081549     
   12.100000000000000        15.336033909688394       6.24066917988133144E-002   15.336160884468237        128.54548162853834       -1.5249547044712528       0.45067087609471629      -0.41137142260112342        1.1001755812935523     
   12.199999999999999        15.430137430776346       5.95699169824117705E-002   15.430252418792589        130.08379019556156       -1.5188558740321916       0.44792237715991640      -0.37377892590110084        1.0798283319150250     
   12.300000000000001        15.572985491519761       5.61947890166392336E-002   15.573086880043968        131.63394634167639       -1.5130676387322390       0.44381366961789004      -0.31211244349099715        1.0629334942840085     
   12.400000000000000        15.770872035069647       5.30464869575228565E-002   15.770961247695729        133.20113921800586       -1.5076055749335309       0.43824487463524225      -0.24719905887014218        1.0498639703400741     
   12.500000000000000        15.989928552511635       5.08180471233630610E-002   15.990009305448833        134.78917924738491       -1.5024123482294867       0.43224107069646123      -0.19648907238039043        1.0395008396646803     