Title = "Perturbations du champ moyen, PSE linéaire Jet compressible - Rans Francisco n = 0, st =  0.4000"
Variables = x, r, Re(ux), Im(ux), abs(ux), Re(ur), Im(ur), abs(ur),  Re(ut), Im(ut), abs(ut),  Re(rho), Im(rho), abs(rho),  Re(p), Im(p), abs(p)
Zone T = "_FrancCase_4 perturbations PSE",I =  69, J = 201, F = point
  0.00000000E+00  0.00000000E+00 -0.43802957E+00 -0.12288361E+01  0.13045719E+01  0.18792370E-14  0.11092255E-14  0.21821808E-14  0.00000000E+00  0.00000000E+00  0.00000000E+00  0.59484374E+00  0.21681628E+00  0.63312587E+00  0.61465036E+00  0.22403565E+00  0.65420718E+00
  0.00000000E+00  0.21688635E-01 -0.43902503E+00 -0.12293113E+01  0.13053540E+01 -0.29962474E-01  0.14747845E-01  0.33395340E-01  0.00000000E+00  0.00000000E+00  0.00000000E+00  0.59480916E+00  0.21689417E+00  0.63312007E+00  0.61511024E+00  0.22398011E+00  0.65462026E+00
  0.00000000E+00  0.43300964E-01 -0.44301565E+00 -0.12316047E+01  0.13088594E+01 -0.76082632E-01  0.54217622E-01  0.93424394E-01  0.00000000E+00  0.00000000E+00  0.00000000E+00  0.59591826E+00  0.21668010E+00  0.63408898E+00  0.61713191E+00  0.22313091E+00  0.65623106E+00
  0.00000000E+00  0.64837254E-01 -0.45047497E+00 -0.12354741E+01  0.13150376E+01 -0.11429227E+00  0.82025457E-01  0.14068013E+00  0.00000000E+00  0.00000000E+00  0.00000000E+00  0.59817784E+00  0.21586153E+00  0.63593469E+00  0.62084948E+00  0.22133701E+00  0.65912377E+00
  0.00000000E+00  0.86297773E-01 -0.46059257E+00 -0.12411531E+01  0.13238605E+01 -0.15604956E+00  0.11569531E+00  0.19425979E+00  0.00000000E+00  0.00000000E+00  0.00000000E+00  0.60109854E+00  0.21505796E+00  0.63841161E+00  0.62600079E+00  0.21886422E+00  0.66315800E+00
  0.00000000E+00  0.10768279E+00 -0.47427731E+00 -0.12482511E+01  0.13353164E+01 -0.19331100E+00  0.14310558E+00  0.24051684E+00  0.00000000E+00  0.00000000E+00  0.00000000E+00  0.60506639E+00  0.21368504E+00  0.64169045E+00  0.63281372E+00  0.21546166E+00  0.66848854E+00
  0.00000000E+00  0.12899256E+00 -0.49060484E+00 -0.12569128E+01  0.13492675E+01 -0.23498071E+00  0.17797244E+00  0.29477131E+00  0.00000000E+00  0.00000000E+00  0.00000000E+00  0.60973533E+00  0.21236354E+00  0.64565892E+00  0.64095094E+00  0.21147347E+00  0.67493639E+00
  0.00000000E+00  0.15022736E+00 -0.51090758E+00 -0.12667598E+01  0.13659088E+01 -0.27198512E+00  0.20657986E+00  0.34154230E+00  0.00000000E+00  0.00000000E+00  0.00000000E+00  0.61553524E+00  0.21037094E+00  0.65049178E+00  0.65083178E+00  0.20644512E+00  0.68278957E+00
  0.00000000E+00  0.17138746E+00 -0.53300601E+00 -0.12789912E+01  0.13856095E+01 -0.31386711E+00  0.24365340E+00  0.39734059E+00  0.00000000E+00  0.00000000E+00  0.00000000E+00  0.62090236E+00  0.20976614E+00  0.65537895E+00  0.66194578E+00  0.20089960E+00  0.69176069E+00
  0.00000000E+00  0.19247310E+00 -0.55967751E+00 -0.12922816E+01  0.14082722E+01 -0.35094559E+00  0.27437780E+00  0.44547276E+00  0.00000000E+00  0.00000000E+00  0.00000000E+00  0.62700521E+00  0.20881853E+00  0.66086361E+00  0.67491194E+00  0.19417403E+00  0.70228889E+00
  0.00000000E+00  0.21348456E+00 -0.58949170E+00 -0.13064314E+01  0.14332702E+01 -0.39319705E+00  0.31443180E+00  0.50345931E+00  0.00000000E+00  0.00000000E+00  0.00000000E+00  0.63376989E+00  0.20819055E+00  0.66708888E+00  0.68903152E+00  0.18698840E+00  0.71395315E+00
  0.00000000E+00  0.23442209E+00 -0.62416549E+00 -0.13216563E+01  0.14616285E+01 -0.43035670E+00  0.34813517E+00  0.55353861E+00  0.00000000E+00  0.00000000E+00  0.00000000E+00  0.64227921E+00  0.20612188E+00  0.67454341E+00  0.70512485E+00  0.17845832E+00  0.72735716E+00
  0.00000000E+00  0.25528596E+00 -0.65698397E+00 -0.13435116E+01  0.14955438E+01 -0.47306910E+00  0.39193689E+00  0.61433614E+00  0.00000000E+00  0.00000000E+00  0.00000000E+00  0.64951523E+00  0.20692071E+00  0.68167897E+00  0.72229116E+00  0.16950712E+00  0.74191454E+00
  0.00000000E+00  0.27607642E+00 -0.68760940E+00 -0.13755837E+01  0.15378677E+01 -0.51132100E+00  0.42924974E+00  0.66761104E+00  0.00000000E+00  0.00000000E+00  0.00000000E+00  0.65708133E+00  0.20803101E+00  0.68922621E+00  0.74159268E+00  0.15903507E+00  0.75845360E+00
  0.00000000E+00  0.29679374E+00 -0.70810176E+00 -0.14248841E+01  0.15911326E+01 -0.55686481E+00  0.47710124E+00  0.73329667E+00  0.00000000E+00  0.00000000E+00  0.00000000E+00  0.66515051E+00  0.21030417E+00  0.69760522E+00  0.76199831E+00  0.14821319E+00  0.77627867E+00
  0.00000000E+00  0.31743817E+00 -0.71951578E+00 -0.14931598E+01  0.16574767E+01 -0.60012718E+00  0.51801676E+00  0.79277613E+00  0.00000000E+00  0.00000000E+00  0.00000000E+00  0.67754455E+00  0.20832865E+00  0.70884939E+00  0.78493568E+00  0.13576493E+00  0.79659032E+00
  0.00000000E+00  0.33800996E+00 -0.71731920E+00 -0.15839938E+01  0.17388454E+01 -0.65366225E+00  0.56953426E+00  0.86697382E+00  0.00000000E+00  0.00000000E+00  0.00000000E+00  0.69072766E+00  0.20839029E+00  0.72147849E+00  0.80936856E+00  0.12316195E+00  0.81868574E+00
  0.00000000E+00  0.35850938E+00 -0.72579539E+00 -0.16667486E+01  0.18179191E+01 -0.70703112E+00  0.61353427E+00  0.93611821E+00  0.00000000E+00  0.00000000E+00  0.00000000E+00  0.70107962E+00  0.21574416E+00  0.73352449E+00  0.83719449E+00  0.10898615E+00  0.84425861E+00
  0.00000000E+00  0.37893667E+00 -0.79141479E+00 -0.16731264E+01  0.18508618E+01 -0.76834591E+00  0.66874117E+00  0.10186119E+01  0.00000000E+00  0.00000000E+00  0.00000000E+00  0.69837694E+00  0.24838534E+00  0.74123251E+00  0.86723982E+00  0.94997607E-01  0.87242733E+00
  0.00000000E+00  0.39929210E+00 -0.10180635E+01 -0.14439202E+01  0.17667367E+01 -0.81251890E+00  0.71494923E+00  0.10822843E+01  0.00000000E+00  0.00000000E+00  0.00000000E+00  0.66956578E+00  0.32786080E+00  0.74552736E+00  0.90110775E+00  0.79430886E-01  0.90460182E+00
  0.00000000E+00  0.41957591E+00 -0.15235083E+01 -0.77896961E+00  0.17111024E+01 -0.82562906E+00  0.77294512E+00  0.11309763E+01  0.00000000E+00  0.00000000E+00  0.00000000E+00  0.59062360E+00  0.49856247E+00  0.77291705E+00  0.93544001E+00  0.63794835E-01  0.93761282E+00
  0.00000000E+00  0.43978835E+00 -0.24503076E+01  0.56209008E+00  0.25139516E+01 -0.76612496E+00  0.83833718E+00  0.11356745E+01  0.00000000E+00  0.00000000E+00  0.00000000E+00  0.44665846E+00  0.78338416E+00  0.90177299E+00  0.96854507E+00  0.44932183E-01  0.96958675E+00
  0.00000000E+00  0.45992968E+00 -0.38101819E+01  0.26062792E+01  0.46162948E+01 -0.57990543E+00  0.92005741E+00  0.10875642E+01  0.00000000E+00  0.00000000E+00  0.00000000E+00  0.22633717E+00  0.11693332E+01  0.11910368E+01  0.99197417E+00  0.23810878E-01  0.99225990E+00
  0.00000000E+00  0.48000015E+00 -0.53897548E+01  0.47501777E+01  0.71842637E+01 -0.23194118E+00  0.10191969E+01  0.10452555E+01  0.00000000E+00  0.00000000E+00  0.00000000E+00 -0.10777831E+00  0.14706349E+01  0.14745790E+01  0.10000000E+01  0.13877788E-16  0.10000000E+01
  0.00000000E+00  0.50000000E+00 -0.59956952E+01  0.51594749E+01  0.79100280E+01  0.22434095E+00  0.11537676E+01  0.11753759E+01  0.00000000E+00  0.00000000E+00  0.00000000E+00 -0.29455447E+00  0.11569252E+01  0.11938334E+01  0.98670128E+00 -0.17073909E-01  0.98684899E+00
  0.00000000E+00  0.51999989E+00 -0.44002327E+01  0.34556706E+01  0.55949716E+01  0.61194372E+00  0.12912129E+01  0.14288828E+01  0.00000000E+00  0.00000000E+00  0.00000000E+00  0.40749881E-01  0.55715522E+00  0.55864344E+00  0.95560627E+00 -0.19575012E-01  0.95580674E+00
  0.00000000E+00  0.54226011E+00 -0.19455309E+01  0.14664213E+01  0.24362844E+01  0.83691254E+00  0.13857365E+01  0.16188540E+01  0.00000000E+00  0.00000000E+00  0.00000000E+00  0.38013110E+00  0.20426578E+00  0.43153698E+00  0.90667109E+00 -0.14996682E-02  0.90667233E+00
  0.00000000E+00  0.56703610E+00  0.90176566E-01  0.85557032E-01  0.12430535E+00  0.87560456E+00  0.14024952E+01  0.16533832E+01  0.00000000E+00  0.00000000E+00  0.00000000E+00  0.57753803E+00  0.47113461E-01  0.57945651E+00  0.84400566E+00  0.33844693E-01  0.84468398E+00
  0.00000000E+00  0.59461219E+00  0.11118994E+01 -0.47646607E+00  0.12096860E+01  0.78207786E+00  0.13490147E+01  0.15593224E+01  0.00000000E+00  0.00000000E+00  0.00000000E+00  0.61056244E+00  0.27450480E-01  0.61117921E+00  0.77249309E+00  0.76851645E-01  0.77630648E+00
  0.00000000E+00  0.62530483E+00  0.13587203E+01 -0.52838397E+00  0.14578445E+01  0.63080644E+00  0.12537758E+01  0.14035208E+01  0.00000000E+00  0.00000000E+00  0.00000000E+00  0.55678810E+00  0.61714556E-01  0.56019789E+00  0.69670176E+00  0.11814170E+00  0.70664758E+00
  0.00000000E+00  0.65946626E+00  0.12203805E+01 -0.38081968E+00  0.12784178E+01  0.47539782E+00  0.11443076E+01  0.12391299E+01  0.00000000E+00  0.00000000E+00  0.00000000E+00  0.47583231E+00  0.10242969E+00  0.48673219E+00  0.61962731E+00  0.15295678E+00  0.63822706E+00
  0.00000000E+00  0.69748849E+00  0.10173470E+01 -0.22556773E+00  0.10420536E+01  0.33777921E+00  0.10348169E+01  0.10885498E+01  0.00000000E+00  0.00000000E+00  0.00000000E+00  0.40192389E+00  0.13067101E+00  0.42263191E+00  0.54242364E+00  0.18029739E+00  0.57160349E+00
  0.00000000E+00  0.73980787E+00  0.86333948E+00 -0.10914985E+00  0.87021190E+00  0.21944822E+00  0.92736806E+00  0.95297903E+00  0.00000000E+00  0.00000000E+00  0.00000000E+00  0.33993336E+00  0.14732626E+00  0.37048579E+00  0.46544475E+00  0.20052241E+00  0.50680179E+00
  0.00000000E+00  0.78691004E+00  0.75293079E+00 -0.20799342E-01  0.75321802E+00  0.11681139E+00  0.81913316E+00  0.82742011E+00  0.00000000E+00  0.00000000E+00  0.00000000E+00  0.28425800E+00  0.15675849E+00  0.32461645E+00  0.38921818E+00  0.21366520E+00  0.44400857E+00
  0.00000000E+00  0.83933554E+00  0.65352148E+00  0.51832655E-01  0.65557376E+00  0.28671359E-01  0.70864505E+00  0.70922483E+00  0.00000000E+00  0.00000000E+00  0.00000000E+00  0.23069458E+00  0.16078659E+00  0.28119801E+00  0.31496324E+00  0.21939495E+00  0.38384370E+00
  0.00000000E+00  0.89768599E+00  0.55001809E+00  0.11030385E+00  0.56096955E+00 -0.43753062E-01  0.59712183E+00  0.59872265E+00  0.00000000E+00  0.00000000E+00  0.00000000E+00  0.17917737E+00  0.15928302E+00  0.23974071E+00  0.24432204E+00  0.21733866E+00  0.32700054E+00
  0.00000000E+00  0.96263101E+00  0.44503730E+00  0.15266542E+00  0.47049435E+00 -0.98922590E-01  0.48745660E+00  0.49739281E+00  0.00000000E+00  0.00000000E+00  0.00000000E+00  0.13133118E+00  0.15216781E+00  0.20100478E+00  0.17908943E+00  0.20761021E+00  0.27418064E+00
  0.00000000E+00  0.10349159E+01  0.34392053E+00  0.17816398E+00  0.38732898E+00 -0.13628273E+00  0.38251597E+00  0.40606829E+00  0.00000000E+00  0.00000000E+00  0.00000000E+00  0.88661403E-01  0.13983440E+00  0.16557326E+00  0.12092335E+00  0.19077947E+00  0.22587443E+00
  0.00000000E+00  0.11153702E+01  0.25039216E+00  0.18724546E+00  0.31266131E+00 -0.15617051E+00  0.28538326E+00  0.32531959E+00  0.00000000E+00  0.00000000E+00  0.00000000E+00  0.52311025E-01  0.12314935E+00  0.13379913E+00  0.71340760E-01  0.16800929E+00  0.18252842E+00
  0.00000000E+00  0.12049172E+01  0.16808550E+00  0.18173847E+00  0.24755122E+00 -0.16000416E+00  0.19877763E+00  0.25517421E+00  0.00000000E+00  0.00000000E+00  0.00000000E+00  0.23061029E-01  0.10327696E+00  0.10582033E+00  0.31450086E-01  0.14089874E+00  0.14436607E+00
  0.00000000E+00  0.13045844E+01  0.98833929E-01  0.16355551E+00  0.19109828E+00 -0.15010939E+00  0.12525985E+00  0.19550667E+00  0.00000000E+00  0.00000000E+00  0.00000000E+00  0.14201663E-02  0.81749361E-01  0.81761696E-01  0.19291452E-02  0.11152632E+00  0.11154300E+00
  0.00000000E+00  0.14155157E+01  0.44921180E-01  0.13656868E+00  0.14376688E+00 -0.12988112E+00  0.66764974E-01  0.14603653E+00  0.00000000E+00  0.00000000E+00  0.00000000E+00 -0.12699593E-01  0.60222350E-01  0.61546820E-01 -0.17330370E-01  0.82156815E-01  0.83964778E-01
  0.00000000E+00  0.15389841E+01  0.70263330E-02  0.10486650E+00  0.10510163E+00 -0.10324109E+00  0.24031363E-01  0.10600108E+00  0.00000000E+00  0.00000000E+00  0.00000000E+00 -0.19917351E-01  0.40376065E-01  0.45021412E-01 -0.27174952E-01  0.55081235E-01  0.61420033E-01
  0.00000000E+00  0.16764065E+01 -0.15694741E-01  0.72706037E-01  0.74380728E-01 -0.74525564E-01 -0.34076034E-02  0.74603428E-01  0.00000000E+00  0.00000000E+00  0.00000000E+00 -0.21441571E-01  0.23622005E-01  0.31902039E-01 -0.29252650E-01  0.32224125E-01  0.43521394E-01
  0.00000000E+00  0.18293599E+01 -0.25444420E-01  0.44122526E-01  0.50933444E-01 -0.47581080E-01 -0.17463306E-01  0.50684576E-01  0.00000000E+00  0.00000000E+00  0.00000000E+00 -0.18900740E-01  0.10905296E-01  0.21821170E-01 -0.25785799E-01  0.14877231E-01  0.29769774E-01
  0.00000000E+00  0.19995996E+01 -0.25546016E-01  0.21604050E-01  0.33456448E-01 -0.25480174E-01 -0.21166258E-01  0.33124761E-01  0.00000000E+00  0.00000000E+00  0.00000000E+00 -0.14133479E-01  0.25461166E-02  0.14360987E-01 -0.19281296E-01  0.34727779E-02  0.19591543E-01
  0.00000000E+00  0.21890791E+01 -0.20012276E-01  0.65719885E-02  0.21063765E-01 -0.98989067E-02 -0.18243134E-01  0.20755730E-01  0.00000000E+00  0.00000000E+00  0.00000000E+00 -0.88592594E-02 -0.18492096E-02  0.90501963E-02 -0.12085817E-01 -0.25230563E-02  0.12346367E-01
  0.00000000E+00  0.23999731E+01 -0.12578464E-01 -0.13961468E-02  0.12655709E-01 -0.90725561E-03 -0.12366640E-01  0.12399875E-01  0.00000000E+00  0.00000000E+00  0.00000000E+00 -0.43813357E-02 -0.32175996E-02  0.54359038E-02 -0.59770769E-02 -0.43896046E-02  0.74157991E-02
  0.00000000E+00  0.26347015E+01 -0.59982884E-02 -0.39890344E-02  0.72036004E-02  0.27312162E-02 -0.64730155E-02  0.70256296E-02  0.00000000E+00  0.00000000E+00  0.00000000E+00 -0.13784095E-02 -0.27723554E-02  0.30961213E-02 -0.18804014E-02 -0.37821149E-02  0.42237782E-02
  0.00000000E+00  0.28959582E+01 -0.16953841E-02 -0.34744445E-02  0.38660175E-02  0.29990219E-02 -0.22570059E-02  0.37534262E-02  0.00000000E+00  0.00000000E+00  0.00000000E+00  0.11325846E-03 -0.16590666E-02  0.16629279E-02  0.15453687E-03 -0.22633074E-02  0.22685771E-02
  0.00000000E+00  0.31867412E+01  0.26310183E-03 -0.19251641E-02  0.19430593E-02  0.18761411E-02 -0.11022025E-03  0.18793760E-02  0.00000000E+00  0.00000000E+00  0.00000000E+00  0.51126789E-03 -0.66236864E-03  0.83673596E-03  0.69748025E-03 -0.90358885E-03  0.11414690E-02
  0.00000000E+00  0.35103875E+01  0.64680905E-03 -0.63828829E-03  0.90872102E-03  0.72538958E-03  0.49040519E-03  0.87560681E-03  0.00000000E+00  0.00000000E+00  0.00000000E+00  0.37855756E-03 -0.99742268E-04  0.39147714E-03  0.51642606E-03 -0.13606353E-03  0.53404977E-03
  0.00000000E+00  0.38706113E+01  0.39159089E-03 -0.19003064E-04  0.39205171E-03  0.92739621E-04  0.36485344E-03  0.37645541E-03  0.00000000E+00  0.00000000E+00  0.00000000E+00  0.15046465E-03  0.76876994E-04  0.16896651E-03  0.20526152E-03  0.10487582E-03  0.23050212E-03
  0.00000000E+00  0.42715463E+01  0.11166304E-03  0.10702476E-03  0.15467040E-03 -0.78785037E-04  0.12535767E-03  0.14805954E-03  0.00000000E+00  0.00000000E+00  0.00000000E+00  0.18821135E-04  0.63985093E-04  0.66695781E-04  0.25675055E-04  0.87287498E-04  0.90985250E-04
  0.00000000E+00  0.47177936E+01 -0.53984723E-05  0.55021274E-04  0.55285478E-04 -0.52464440E-04  0.56746597E-05  0.52770439E-04  0.00000000E+00  0.00000000E+00  0.00000000E+00 -0.13820225E-04  0.19439635E-04  0.23851583E-04 -0.18853357E-04  0.26519061E-04  0.32537819E-04
  0.00000000E+00  0.52144744E+01 -0.15837176E-04  0.79657073E-05  0.17727623E-04 -0.10532279E-04 -0.13187119E-04  0.16876878E-04  0.00000000E+00  0.00000000E+00  0.00000000E+00 -0.76407567E-05 -0.41224992E-06  0.76518699E-05 -0.10423322E-04 -0.56241420E-06  0.10438484E-04
  0.00000000E+00  0.57672883E+01 -0.40005067E-05 -0.30810114E-05  0.50494242E-05  0.20704554E-05 -0.43264661E-05  0.47963626E-05  0.00000000E+00  0.00000000E+00  0.00000000E+00 -0.83885637E-06 -0.20127553E-05  0.21805651E-05 -0.11443350E-05 -0.27457435E-05  0.29746613E-05
  0.00000000E+00  0.63825793E+01  0.42215377E-06 -0.11944012E-05  0.12668102E-05  0.11904263E-05  0.15323340E-06  0.12002480E-05  0.00000000E+00  0.00000000E+00  0.00000000E+00  0.41444864E-06 -0.35744265E-06  0.54729601E-06  0.56537790E-06 -0.48761007E-06  0.74660281E-06
  0.00000000E+00  0.70674085E+01  0.27367367E-06  0.49493169E-07  0.27811302E-06  0.94345337E-08  0.26284696E-06  0.26301623E-06  0.00000000E+00  0.00000000E+00  0.00000000E+00  0.92098141E-07  0.77261295E-07  0.12021387E-06  0.12563650E-06  0.10539719E-06  0.16399115E-06
  0.00000000E+00  0.78296348E+01 -0.10891964E-07  0.52327152E-07  0.53448721E-07 -0.50627791E-07  0.50818289E-09  0.50630342E-07  0.00000000E+00  0.00000000E+00  0.00000000E+00 -0.15312722E-07  0.17321075E-07  0.23119237E-07 -0.20888990E-07  0.23628586E-07  0.31538231E-07
  0.00000000E+00  0.86780053E+01 -0.82844235E-08 -0.41146029E-08  0.92499530E-08  0.22000555E-08 -0.84292364E-08  0.87116170E-08  0.00000000E+00  0.00000000E+00  0.00000000E+00 -0.22315446E-08 -0.33229462E-08  0.40027194E-08 -0.30441598E-08 -0.45330079E-08  0.54603177E-08
  0.00000000E+00  0.96222558E+01  0.13170511E-08 -0.84118817E-09  0.15627607E-08  0.99492516E-09  0.10064670E-08  0.14152215E-08  0.00000000E+00  0.00000000E+00  0.00000000E+00  0.67559887E-09 -0.33894593E-10  0.67644857E-09  0.92161775E-09 -0.46236377E-10  0.92277683E-09
  0.00000000E+00  0.10673222E+02 -0.77003864E-10  0.27250036E-09  0.28317140E-09 -0.24562328E-09  0.92513960E-11  0.24579745E-09  0.00000000E+00  0.00000000E+00  0.00000000E+00 -0.87394430E-10  0.85992976E-10  0.12260742E-09 -0.11921891E-09  0.11730690E-09  0.16725447E-09
  0.00000000E+00  0.11842966E+02 -0.12068869E-10 -0.52032963E-10  0.53414295E-10  0.38038533E-10 -0.36821729E-10  0.52941191E-10  0.00000000E+00  0.00000000E+00  0.00000000E+00  0.66149417E-11 -0.22167294E-10  0.23133231E-10  0.90237632E-11 -0.30239365E-10  0.31557051E-10
  0.00000000E+00  0.13144909E+02  0.49065131E-11  0.68032952E-11  0.83880091E-11 -0.34969405E-11  0.14279618E-10  0.14701568E-10  0.00000000E+00  0.00000000E+00  0.00000000E+00  0.38827176E-12  0.36128792E-11  0.36336828E-11  0.52964872E-12  0.49284767E-11  0.49568549E-11
  0.00000000E+00  0.14593994E+02 -0.38760605E-12  0.39144426E-12  0.55087845E-12 -0.29069060E-12 -0.47237654E-11  0.47327012E-11  0.00000000E+00  0.00000000E+00  0.00000000E+00 -0.22993645E-12  0.64225066E-13  0.23873757E-12 -0.31366271E-12  0.87611748E-13  0.32566871E-12
  0.00000000E+00  0.16206850E+02 -0.73208824E-12 -0.13904024E-11  0.15713599E-11  0.20166705E-12  0.18094469E-11  0.18206503E-11  0.00000000E+00  0.00000000E+00  0.00000000E+00  0.22466331E-13 -0.68053450E-12  0.68090524E-12  0.30646315E-13 -0.92834166E-12  0.92884737E-12
  0.00000000E+00  0.18001985E+02  0.11363853E-11  0.25690538E-11  0.28091652E-11  0.60119188E-12 -0.11389005E-11  0.12878378E-11  0.00000000E+00  0.00000000E+00  0.00000000E+00 -0.12284977E-12  0.12112327E-11  0.12174468E-11 -0.16758308E-12  0.16522836E-11  0.16607604E-11
  0.00000000E+00  0.20000000E+02 -0.21394782E-12  0.96275244E-12  0.98623827E-12  0.46569177E-28  0.26337115E-28  0.53500765E-28  0.00000000E+00  0.00000000E+00  0.00000000E+00 -0.28701911E-12  0.31678022E-12  0.42746893E-12 -0.39153180E-12  0.43212986E-12  0.58312380E-12
  0.10000000E+00  0.00000000E+00 -0.19248789E+00 -0.14414269E+01  0.14542225E+01 -0.26546796E-14  0.42213133E-14  0.49866632E-14  0.00000000E+00  0.00000000E+00  0.00000000E+00  0.60506969E+00  0.27005877E+00  0.66260174E+00  0.96524394E+00 -0.42708499E-01  0.96618833E+00
  0.10000000E+00  0.21688635E-01 -0.19351516E+00 -0.14425725E+01  0.14554942E+01 -0.39601103E-01  0.38478324E-02  0.39787600E-01  0.00000000E+00  0.00000000E+00  0.00000000E+00  0.60489275E+00  0.27035614E+00  0.66256146E+00  0.96652314E+00 -0.42378837E-01  0.96745178E+00
  0.10000000E+00  0.43300964E-01 -0.19659068E+00 -0.14461224E+01  0.14594238E+01 -0.86278847E-01  0.28463431E-01  0.90852663E-01  0.00000000E+00  0.00000000E+00  0.00000000E+00  0.60565624E+00  0.27066066E+00  0.66338275E+00  0.96695813E+00 -0.41228740E-01  0.96783668E+00
  0.10000000E+00  0.64837254E-01 -0.20211226E+00 -0.14515487E+01  0.14655521E+01 -0.12974755E+00  0.43053038E-01  0.13670403E+00  0.00000000E+00  0.00000000E+00  0.00000000E+00  0.60731041E+00  0.27040192E+00  0.66478804E+00  0.96584297E+00 -0.39165873E-01  0.96663675E+00
  0.10000000E+00  0.86297773E-01 -0.20922316E+00 -0.14589524E+01  0.14738780E+01 -0.17525566E+00  0.62086180E-01  0.18592805E+00  0.00000000E+00  0.00000000E+00  0.00000000E+00  0.60916921E+00  0.26985446E+00  0.66626463E+00  0.96464318E+00 -0.35941529E-01  0.96531251E+00
  0.10000000E+00  0.10768279E+00 -0.21874390E+00 -0.14675919E+01  0.14838042E+01 -0.21954545E+00  0.75094924E-01  0.23203330E+00  0.00000000E+00  0.00000000E+00  0.00000000E+00  0.61163605E+00  0.26816661E+00  0.66784129E+00  0.96231306E+00 -0.31228204E-01  0.96281962E+00
  0.10000000E+00  0.12899256E+00 -0.22988518E+00 -0.14778267E+01  0.14955998E+01 -0.26678152E+00  0.93237636E-01  0.28260509E+00  0.00000000E+00  0.00000000E+00  0.00000000E+00  0.61441261E+00  0.26591119E+00  0.66948609E+00  0.96085330E+00 -0.24562584E-01  0.96116720E+00
  0.10000000E+00  0.15022736E+00 -0.24390744E+00 -0.14895665E+01  0.15094036E+01 -0.31322213E+00  0.10481083E+00  0.33029292E+00  0.00000000E+00  0.00000000E+00  0.00000000E+00  0.61811827E+00  0.26281533E+00  0.67167112E+00  0.95833132E+00 -0.15517978E-01  0.95845695E+00
  0.10000000E+00  0.17138746E+00 -0.25854994E+00 -0.15050242E+01  0.15270710E+01 -0.36326839E+00  0.12196824E+00  0.38319731E+00  0.00000000E+00  0.00000000E+00  0.00000000E+00  0.62087747E+00  0.26150882E+00  0.67370297E+00  0.95775173E+00 -0.36668489E-02  0.95775875E+00
  0.10000000E+00  0.19247310E+00 -0.27688039E+00 -0.15239435E+01  0.15488920E+01 -0.41280033E+00  0.13250564E+00  0.43354568E+00  0.00000000E+00  0.00000000E+00  0.00000000E+00  0.62436031E+00  0.26151595E+00  0.67691683E+00  0.95622262E+00  0.11234091E-01  0.95628861E+00
  0.10000000E+00  0.21348456E+00 -0.29845152E+00 -0.15477061E+01  0.15762194E+01 -0.46612902E+00  0.14987855E+00  0.48963236E+00  0.00000000E+00  0.00000000E+00  0.00000000E+00  0.62916891E+00  0.26464604E+00  0.68256212E+00  0.95767884E+00  0.29280417E-01  0.95812635E+00
  0.10000000E+00  0.23442209E+00 -0.32502040E+00 -0.15764477E+01  0.16096042E+01 -0.51845195E+00  0.16183345E+00  0.54312291E+00  0.00000000E+00  0.00000000E+00  0.00000000E+00  0.63711639E+00  0.26974194E+00  0.69186561E+00  0.95797540E+00  0.50220802E-01  0.95929088E+00
  0.10000000E+00  0.25528596E+00 -0.34903779E+00 -0.16151239E+01  0.16524081E+01 -0.57415507E+00  0.18250070E+00  0.60246207E+00  0.00000000E+00  0.00000000E+00  0.00000000E+00  0.64469605E+00  0.28047911E+00  0.70306580E+00  0.96186547E+00  0.73634982E-01  0.96467989E+00
  0.10000000E+00  0.27607642E+00 -0.36863984E+00 -0.16658189E+01  0.17061207E+01 -0.62846321E+00  0.19867145E+00  0.65911786E+00  0.00000000E+00  0.00000000E+00  0.00000000E+00  0.65402023E+00  0.29451846E+00  0.71727511E+00  0.96387174E+00  0.98971648E-01  0.96893969E+00
  0.10000000E+00  0.29679374E+00 -0.37396533E+00 -0.17345198E+01  0.17743757E+01 -0.68641410E+00  0.22444321E+00  0.72217662E+00  0.00000000E+00  0.00000000E+00  0.00000000E+00  0.66580546E+00  0.31216634E+00  0.73535348E+00  0.96950926E+00  0.12566639E+00  0.97761968E+00
  0.10000000E+00  0.31743817E+00 -0.36390150E+00 -0.18207415E+01  0.18567509E+01 -0.74379612E+00  0.24551571E+00  0.78326919E+00  0.00000000E+00  0.00000000E+00  0.00000000E+00  0.68487097E+00  0.32782610E+00  0.75928795E+00  0.97189733E+00  0.15329326E+00  0.98391221E+00
  0.10000000E+00  0.33800996E+00 -0.33108970E+00 -0.19291446E+01  0.19573500E+01 -0.80677874E+00  0.27567389E+00  0.85257729E+00  0.00000000E+00  0.00000000E+00  0.00000000E+00  0.70628128E+00  0.34539455E+00  0.78621285E+00  0.97755465E+00  0.18149326E+00  0.99425998E+00
  0.10000000E+00  0.35850938E+00 -0.30597180E+00 -0.20342099E+01  0.20570923E+01 -0.87179307E+00  0.30035907E+00  0.92208391E+00  0.00000000E+00  0.00000000E+00  0.00000000E+00  0.72274404E+00  0.36903726E+00  0.81150936E+00  0.97867820E+00  0.21019133E+00  0.10009952E+01
  0.10000000E+00  0.37893667E+00 -0.35498010E+00 -0.20840829E+01  0.21140985E+01 -0.94343827E+00  0.33650734E+00  0.10016551E+01  0.00000000E+00  0.00000000E+00  0.00000000E+00  0.71763129E+00  0.41345447E+00  0.82821450E+00  0.98342571E+00  0.23900534E+00  0.10120522E+01
  0.10000000E+00  0.39929210E+00 -0.63799134E+00 -0.19387308E+01  0.20410071E+01 -0.10109089E+01  0.37643227E+00  0.10787206E+01  0.00000000E+00  0.00000000E+00  0.00000000E+00  0.66835351E+00  0.49700433E+00  0.83289238E+00  0.98396065E+00  0.26720789E+00  0.10195973E+01
  0.10000000E+00  0.41957591E+00 -0.13504063E+01 -0.14216085E+01  0.19607570E+01 -0.10616190E+01  0.44849199E+00  0.11524669E+01  0.00000000E+00  0.00000000E+00  0.00000000E+00  0.53645870E+00  0.65610796E+00  0.84750551E+00  0.99158357E+00  0.29201693E+00  0.10336885E+01
  0.10000000E+00  0.43978835E+00 -0.27386020E+01 -0.30065476E+00  0.27550561E+01 -0.10582470E+01  0.55774196E+00  0.11962286E+01  0.00000000E+00  0.00000000E+00  0.00000000E+00  0.28981769E+00  0.91891083E+00  0.96353070E+00  0.99711101E+00  0.31045700E+00  0.10443246E+01
  0.10000000E+00  0.45992968E+00 -0.48460133E+01  0.14635627E+01  0.50621992E+01 -0.95834421E+00  0.74149304E+00  0.12117077E+01  0.00000000E+00  0.00000000E+00  0.00000000E+00 -0.81686876E-01  0.12653033E+01  0.12679373E+01  0.10103512E+01  0.31821457E+00  0.10592781E+01
  0.10000000E+00  0.48000015E+00 -0.72938040E+01  0.33636115E+01  0.80320271E+01 -0.71882481E+00  0.99617481E+00  0.12284435E+01  0.00000000E+00  0.00000000E+00  0.00000000E+00 -0.58094389E+00  0.15217482E+01  0.16288687E+01  0.10208657E+01  0.31257573E+00  0.10676471E+01
  0.10000000E+00  0.50000000E+00 -0.81818314E+01  0.37700984E+01  0.90086629E+01 -0.37475793E+00  0.13042950E+01  0.13570664E+01  0.00000000E+00  0.00000000E+00  0.00000000E+00 -0.75017652E+00  0.11219103E+01  0.13496101E+01  0.10326397E+01  0.30245938E+00  0.10760234E+01
  0.10000000E+00  0.51999989E+00 -0.57082809E+01  0.26584521E+01  0.62969706E+01 -0.87912656E-01  0.15399498E+01  0.15424572E+01  0.00000000E+00  0.00000000E+00  0.00000000E+00 -0.11097281E+00  0.57959111E+00  0.59011933E+00  0.10260484E+01  0.30042937E+00  0.10691273E+01
  0.10000000E+00  0.54226011E+00 -0.24089563E+01  0.15223737E+01  0.28496828E+01  0.41479530E-01  0.16032824E+01  0.16038189E+01  0.00000000E+00  0.00000000E+00  0.00000000E+00  0.39362182E+00  0.39029896E+00  0.55432068E+00  0.99789732E+00  0.30932042E+00  0.10447383E+01
  0.10000000E+00  0.56703610E+00  0.95273607E-02  0.65642618E+00  0.65649532E+00  0.96967000E-01  0.14860709E+01  0.14892311E+01  0.00000000E+00  0.00000000E+00  0.00000000E+00  0.62409846E+00  0.30757281E+00  0.69577289E+00  0.93651289E+00  0.31790131E+00  0.98899830E+00
  0.10000000E+00  0.59461219E+00  0.10837774E+01  0.98813330E-01  0.10882727E+01  0.11413512E+00  0.13120740E+01  0.13170289E+01  0.00000000E+00  0.00000000E+00  0.00000000E+00  0.65707356E+00  0.24203687E+00  0.70023390E+00  0.86768755E+00  0.32186912E+00  0.92546281E+00
  0.10000000E+00  0.62530483E+00  0.13293903E+01 -0.59334050E-01  0.13307138E+01  0.14556352E+00  0.11628952E+01  0.11719702E+01  0.00000000E+00  0.00000000E+00  0.00000000E+00  0.61384095E+00  0.23245141E+00  0.65637975E+00  0.79278155E+00  0.32395939E+00  0.85641828E+00
  0.10000000E+00  0.65946626E+00  0.12103990E+01 -0.57715774E-01  0.12117742E+01  0.14905764E+00  0.10443696E+01  0.10549531E+01  0.00000000E+00  0.00000000E+00  0.00000000E+00  0.55186540E+00  0.23120765E+00  0.59834137E+00  0.72537905E+00  0.32981420E+00  0.79683886E+00
  0.10000000E+00  0.69748849E+00  0.10062722E+01  0.11719793E-01  0.10063404E+01  0.14948053E+00  0.96641815E+00  0.97791025E+00  0.00000000E+00  0.00000000E+00  0.00000000E+00  0.48146364E+00  0.23723513E+00  0.53673806E+00  0.65194523E+00  0.33793314E+00  0.73432376E+00
  0.10000000E+00  0.73980787E+00  0.86439495E+00  0.78647334E-01  0.86796546E+00  0.12614616E+00  0.89560085E+00  0.90444112E+00  0.00000000E+00  0.00000000E+00  0.00000000E+00  0.42400667E+00  0.24540138E+00  0.48990152E+00  0.58079394E+00  0.34849158E+00  0.67732414E+00
  0.10000000E+00  0.78691004E+00  0.76246414E+00  0.13441009E+00  0.77422066E+00  0.10014642E+00  0.84096801E+00  0.84690998E+00  0.00000000E+00  0.00000000E+00  0.00000000E+00  0.36586878E+00  0.25201362E+00  0.44426437E+00  0.50081855E+00  0.35686587E+00  0.61495729E+00
  0.10000000E+00  0.83933554E+00  0.68026211E+00  0.18215793E+00  0.70422869E+00  0.49407861E-01  0.77980006E+00  0.78136373E+00  0.00000000E+00  0.00000000E+00  0.00000000E+00  0.31026791E+00  0.25728616E+00  0.40306618E+00  0.42200181E+00  0.36363362E+00  0.55705919E+00
  0.10000000E+00  0.89768599E+00  0.58458052E+00  0.22693138E+00  0.62708232E+00 -0.69374143E-02  0.72495114E+00  0.72498434E+00  0.00000000E+00  0.00000000E+00  0.00000000E+00  0.24854323E+00  0.25778717E+00  0.35808932E+00  0.33548374E+00  0.36304270E+00  0.49431705E+00
  0.10000000E+00  0.96263101E+00  0.48660160E+00  0.26339122E+00  0.55331371E+00 -0.81628548E-01  0.65016636E+00  0.65527056E+00  0.00000000E+00  0.00000000E+00  0.00000000E+00  0.18857427E+00  0.25358583E+00  0.31601587E+00  0.25189662E+00  0.35575803E+00  0.43590788E+00
  0.10000000E+00  0.10349159E+01  0.37758841E+00  0.28781959E+00  0.47477692E+00 -0.15112217E+00  0.56986953E+00  0.58956695E+00  0.00000000E+00  0.00000000E+00  0.00000000E+00  0.12610995E+00  0.24043814E+00  0.27150363E+00  0.16565628E+00  0.33532793E+00  0.37401447E+00
  0.10000000E+00  0.11153702E+01  0.27356731E+00  0.29573437E+00  0.40286212E+00 -0.21795454E+00  0.46215965E+00  0.51097527E+00  0.00000000E+00  0.00000000E+00  0.00000000E+00  0.70104114E-01  0.21967077E+00  0.23058585E+00  0.88797593E-01  0.30451916E+00  0.31720172E+00